/*--------------------------------*- C++ -*----------------------------------*\
  =========                 |
  \\      /  F ield         | OpenFOAM: The Open Source CFD Toolbox
   \\    /   O peration     | Website:  https://openfoam.org
    \\  /    A nd           | Version:  7
     \\/     M anipulation  |
\*---------------------------------------------------------------------------*/
FoamFile
{
    version     2.0;
    format      ascii;
    class       surfaceScalarField;
    location    "0";
    object      phi1;
}
// * * * * * * * * * * * * * * * * * * * * * * * * * * * * * * * * * * * * * //

dimensions      [0 3 -1 0 0 0 0];

internalField   nonuniform List<scalar> 
1735
(
1.23982e-05
2.38085e-12
1.23982e-05
-2.56826e-11
1.23988e-05
-5.94073e-10
1.24058e-05
-6.96338e-09
1.24455e-05
-3.97631e-08
1.25761e-05
-1.30568e-07
1.28811e-05
-3.0499e-07
1.3506e-05
-6.24855e-07
1.49214e-05
-1.41541e-06
-5.39642e-06
2.03178e-05
1.60129e-05
2.63482e-12
1.60129e-05
-5.58031e-11
1.60137e-05
-1.36335e-09
1.60227e-05
-1.59521e-08
1.6074e-05
-9.10929e-08
1.62425e-05
-2.99077e-07
1.66359e-05
-6.98329e-07
1.74395e-05
-1.4285e-06
1.92282e-05
-3.20412e-06
-1.07539e-05
2.45856e-05
2.06814e-05
2.96239e-12
2.06815e-05
-9.46587e-11
2.06825e-05
-2.35562e-09
2.06941e-05
-2.75458e-08
2.07603e-05
-1.57285e-07
2.09774e-05
-5.16232e-07
2.14833e-05
-1.20417e-06
2.25085e-05
-2.45376e-06
2.46937e-05
-5.38928e-06
-1.56086e-05
2.95484e-05
2.67111e-05
3.38953e-12
2.67112e-05
-1.44704e-10
2.67124e-05
-3.63352e-09
2.67274e-05
-4.24747e-08
2.68126e-05
-2.42478e-07
2.70916e-05
-7.95314e-07
2.77387e-05
-1.85127e-06
2.90278e-05
-3.74285e-06
3.15658e-05
-7.92724e-06
-1.94356e-05
3.53928e-05
3.44987e-05
3.9484e-12
3.44988e-05
-2.08984e-10
3.45004e-05
-5.27454e-09
3.45196e-05
-6.16405e-08
3.46289e-05
-3.51746e-07
3.49858e-05
-1.15222e-06
3.58058e-05
-2.67133e-06
3.73869e-05
-5.32397e-06
4.01244e-05
-1.06647e-05
-2.17743e-05
4.24631e-05
4.45568e-05
4.68455e-12
4.45569e-05
-2.91143e-10
4.4559e-05
-7.37112e-09
4.45835e-05
-8.61144e-08
4.47228e-05
-4.91029e-07
4.51752e-05
-1.60466e-06
4.61975e-05
-3.69366e-06
4.80597e-05
-7.18615e-06
5.07053e-05
-1.33104e-05
-2.23888e-05
5.13199e-05
5.75473e-05
5.67002e-12
5.75475e-05
-3.95244e-10
5.75501e-05
-1.00256e-08
5.75811e-05
-1.17072e-07
5.77567e-05
-6.66644e-07
5.83215e-05
-2.16947e-06
5.95608e-05
-4.93294e-06
6.16165e-05
-9.24191e-06
6.37622e-05
-1.54561e-05
-2.13819e-05
6.27553e-05
7.43253e-05
7.02411e-12
7.43254e-05
-5.25134e-10
7.43287e-05
-1.33331e-08
7.43672e-05
-1.55582e-07
7.45844e-05
-8.83834e-07
7.52708e-05
-2.85582e-06
7.67034e-05
-6.36562e-06
7.87505e-05
-1.12889e-05
7.99736e-05
-1.66792e-05
-1.91697e-05
7.77614e-05
9.59948e-05
8.9484e-12
9.5995e-05
-6.82771e-10
9.59989e-05
-1.73369e-08
9.60454e-05
-2.0206e-07
9.63049e-05
-1.14328e-06
9.70998e-05
-3.6508e-06
9.86269e-05
-7.89269e-06
0.00010034
-1.3002e-05
0.00010037
-1.67096e-05
-1.63021e-05
9.75027e-05
0.000123982
1.18177e-11
0.000123982
-8.6445e-10
0.000123987
-2.19272e-08
0.00012404
-2.55065e-07
0.00012433
-1.43368e-06
0.000125172
-4.49284e-06
0.000126575
-9.29499e-06
0.000127572
-1.3999e-05
0.000126443
-1.5581e-05
-1.32383e-05
0.000123379
0.000371946
6.10956e-11
0.000371947
-1.26153e-09
0.000371955
-3.07118e-08
0.000372055
-3.54594e-07
0.000372557
-1.93622e-06
0.000373665
-5.60062e-06
0.000374204
-9.83379e-06
0.000371963
-1.17586e-05
0.000366933
-1.05506e-05
-7.89633e-06
0.000361591
0.000287984
4.17153e-11
0.000287984
-1.2324e-09
0.000287984
-3.04698e-08
0.000287979
-3.49402e-07
0.000287913
-1.87052e-06
0.000287461
-5.14833e-06
0.000285891
-8.26348e-06
0.000283005
-8.87331e-06
0.000279785
-7.32995e-06
-5.26234e-06
0.000277151
0.000222976
2.90114e-11
0.000222976
-1.04768e-09
0.000222971
-2.60975e-08
0.00022292
-2.97977e-07
0.000222625
-1.5758e-06
0.000221688
-4.21081e-06
0.00021985
-6.42564e-06
0.000217506
-6.52952e-06
0.000215372
-5.19603e-06
-3.66627e-06
0.000213776
0.000172642
2.03506e-11
0.000172642
-8.21258e-10
0.000172636
-2.05738e-08
0.000172573
-2.34289e-07
0.000172227
-1.2301e-06
0.000171247
-3.23137e-06
0.000169615
-4.79312e-06
0.000167815
-4.73e-06
0.000166315
-3.69534e-06
-2.58605e-06
0.000165235
0.00013367
1.41869e-11
0.00013367
-6.06436e-10
0.000133665
-1.52895e-08
0.000133605
-1.73827e-07
0.000133283
-9.08936e-07
0.000132417
-2.36489e-06
0.000131077
-3.45324e-06
0.000129702
-3.3547e-06
0.000128603
-2.59619e-06
-1.80933e-06
0.000127826
0.000103496
9.64473e-12
0.000103496
-4.22446e-10
0.000103491
-1.07502e-08
0.00010344
-1.22078e-07
0.000103168
-6.3694e-07
0.000102451
-1.64858e-06
0.000101385
-2.38701e-06
0.00010033
-2.29971e-06
9.95051e-05
-1.77105e-06
-1.23165e-06
9.89274e-05
8.01333e-05
6.21714e-12
8.01332e-05
-2.72506e-10
8.01295e-05
-7.04715e-09
8.00874e-05
-7.99387e-08
7.9867e-05
-4.16624e-07
7.92939e-05
-1.07543e-06
7.84573e-05
-1.55038e-06
7.76449e-05
-1.48737e-06
7.70165e-05
-1.14263e-06
-7.93779e-07
7.65786e-05
6.20443e-05
3.59446e-12
6.20443e-05
-1.53447e-10
6.20413e-05
-4.10605e-09
6.20079e-05
-4.64995e-08
6.18335e-05
-2.42247e-07
6.13825e-05
-6.24501e-07
6.07306e-05
-8.98458e-07
6.01035e-05
-8.60224e-07
5.96209e-05
-6.60079e-07
-4.58326e-07
5.92855e-05
4.80387e-05
1.5687e-12
4.80386e-05
-6.02094e-11
4.80363e-05
-1.80311e-09
4.80101e-05
-2.03255e-08
4.78738e-05
-1.05914e-07
4.75222e-05
-2.72887e-07
4.7016e-05
-3.92283e-07
4.65311e-05
-3.75294e-07
4.61588e-05
-2.87846e-07
-1.99826e-07
4.59003e-05
3.71946e-05
3.71945e-05
3.71927e-05
3.71724e-05
3.70665e-05
3.67936e-05
3.64013e-05
3.6026e-05
3.57382e-05
3.55384e-05
0.000357288
-5.69013e-06
9.99276e-06
0.000352247
-6.50113e-06
1.15425e-05
0.000346896
-7.22579e-06
1.25771e-05
0.000341798
-7.75529e-06
1.28528e-05
0.000337452
-7.9938e-06
1.23399e-05
0.000334143
-7.88736e-06
1.11964e-05
0.000331911
-7.43891e-06
9.67123e-06
0.000330608
-6.70468e-06
8.00767e-06
0.000329994
-5.77625e-06
6.38945e-06
0.000329824
-4.75737e-06
4.9283e-06
0.000329891
-3.74392e-06
3.67685e-06
0.000330053
-2.81123e-06
2.64872e-06
0.000330227
-2.00899e-06
1.83541e-06
0.000330371
-1.3614e-06
1.21686e-06
0.000330475
-8.70799e-07
7.67006e-07
0.000330541
-5.22901e-07
4.56537e-07
0.00033058
-2.92757e-07
2.54624e-07
0.0003306
-1.50822e-07
1.30482e-07
0.000330607
-6.94402e-08
6.17991e-08
-1.84502e-08
1.36139e-08
0.000275195
-3.73405e-06
0.000272938
-4.24497e-06
0.000270451
-4.73888e-06
0.00026786
-5.16357e-06
0.000265325
-5.45891e-06
0.000263007
-5.5695e-06
0.000261028
-5.45949e-06
0.000259447
-5.12387e-06
0.000258262
-4.59178e-06
0.000257425
-3.92055e-06
0.000256864
-3.18279e-06
0.000256505
-2.45143e-06
0.000256282
-1.78673e-06
0.000256149
-1.22844e-06
0.000256072
-7.93688e-07
0.000256029
-4.79668e-07
0.000256006
-2.69536e-07
0.000255994
-1.39175e-07
0.000255988
-6.38175e-08
-1.74988e-08
0.000212627
-2.58466e-06
0.000211313
-2.93134e-06
0.000209851
-3.27669e-06
0.000208278
-3.5913e-06
0.000206657
-3.83761e-06
0.000205063
-3.97525e-06
0.000203573
-3.96997e-06
0.000202253
-3.80349e-06
0.000201142
-3.48093e-06
0.000200254
-3.03207e-06
0.000199577
-2.50579e-06
0.000199084
-1.95912e-06
0.000198743
-1.44496e-06
0.000198516
-1.00232e-06
0.000198374
-6.51643e-07
0.00019829
-3.95429e-07
0.000198243
-2.22722e-07
0.000198219
-1.15169e-07
0.000198208
-5.26954e-08
-1.46949e-08
0.000164467
-1.81746e-06
0.000163595
-2.05877e-06
0.00016262
-2.30244e-06
0.000161559
-2.53018e-06
0.000160439
-2.71745e-06
0.0001593
-2.83603e-06
0.000158189
-2.85928e-06
0.000157155
-2.76929e-06
0.000156238
-2.56346e-06
0.000155463
-2.2578e-06
0.000154842
-1.88482e-06
0.00015437
-1.48635e-06
0.000154029
-1.10386e-06
0.000153796
-7.69708e-07
0.000153647
-5.02264e-07
0.000153557
-3.05525e-07
0.000153506
-1.72332e-07
0.00015348
-8.91872e-08
0.000153468
-4.07754e-08
-1.14537e-08
0.000127278
-1.26958e-06
0.000126656
-1.43725e-06
0.000125962
-1.60769e-06
0.0001252
-1.769e-06
0.000124388
-1.90478e-06
0.000123547
-1.99552e-06
0.00012271
-2.02191e-06
0.00012191
-1.96964e-06
0.000121181
-1.83452e-06
0.000120549
-1.62565e-06
0.000120029
-1.36471e-06
0.000119624
-1.0814e-06
0.000119326
-8.06244e-07
0.000119121
-5.63847e-07
0.000118987
-3.68705e-07
0.000118906
-2.24594e-07
0.000118861
-1.26788e-07
0.000118837
-6.56477e-08
0.000118826
-3.00037e-08
-8.45709e-09
9.85213e-05
-8.63534e-07
9.80613e-05
-9.77258e-07
9.75469e-05
-1.09326e-06
9.69816e-05
-1.20373e-06
9.63747e-05
-1.29781e-06
9.57415e-05
-1.36233e-06
9.51035e-05
-1.38393e-06
9.44861e-05
-1.35228e-06
9.39153e-05
-1.26366e-06
9.3413e-05
-1.12344e-06
9.29943e-05
-9.45967e-07
9.26644e-05
-7.51545e-07
9.24197e-05
-5.61507e-07
9.22492e-05
-3.93323e-07
9.2138e-05
-2.57494e-07
9.20704e-05
-1.5697e-07
9.20322e-05
-8.86538e-08
9.20125e-05
-4.59142e-08
9.20035e-05
-2.09814e-08
-5.92401e-09
7.62714e-05
-5.56306e-07
7.59236e-05
-6.29465e-07
7.55345e-05
-7.04216e-07
7.51064e-05
-7.75627e-07
7.46454e-05
-8.3679e-07
7.41623e-05
-8.79268e-07
7.36728e-05
-8.94383e-07
7.31958e-05
-8.75284e-07
7.27514e-05
-8.19297e-07
7.23576e-05
-7.29609e-07
7.20269e-05
-6.15308e-07
7.17649e-05
-4.89504e-07
7.15695e-05
-3.66128e-07
7.14329e-05
-2.56678e-07
7.13435e-05
-1.68137e-07
7.12891e-05
-1.02538e-07
7.12584e-05
-5.79256e-08
7.12425e-05
-3.00035e-08
7.12352e-05
-1.37094e-08
-3.87386e-09
5.90503e-05
-3.21148e-07
5.87842e-05
-3.63354e-07
5.84865e-05
-4.06512e-07
5.81587e-05
-4.47802e-07
5.78051e-05
-4.8326e-07
5.74339e-05
-5.08029e-07
5.70566e-05
-5.17081e-07
5.66877e-05
-5.06409e-07
5.63428e-05
-4.74393e-07
5.6036e-05
-4.22796e-07
5.57775e-05
-3.56823e-07
5.5572e-05
-2.8405e-07
5.54185e-05
-2.12567e-07
5.53109e-05
-1.49082e-07
5.52404e-05
-9.76839e-08
5.51975e-05
-5.95835e-08
5.51732e-05
-3.36634e-08
5.51607e-05
-1.7437e-08
5.51549e-05
-7.96661e-09
-2.25174e-09
4.57192e-05
-1.40008e-07
4.55142e-05
-1.58403e-07
4.52849e-05
-1.77219e-07
4.50324e-05
-1.95231e-07
4.47598e-05
-2.10715e-07
4.44733e-05
-2.21555e-07
4.41818e-05
-2.25557e-07
4.38964e-05
-2.20966e-07
4.3629e-05
-2.0706e-07
4.33908e-05
-1.84597e-07
4.31898e-05
-1.55838e-07
4.30299e-05
-1.24086e-07
4.29102e-05
-9.28786e-08
4.28263e-05
-6.51497e-08
4.27713e-05
-4.2693e-08
4.27377e-05
-2.60429e-08
4.27188e-05
-1.4714e-08
4.2709e-05
-7.62099e-09
4.27045e-05
-3.48097e-09
-9.83677e-10
3.53984e-05
3.52399e-05
3.50627e-05
3.48675e-05
3.46568e-05
3.44352e-05
3.42097e-05
3.39887e-05
3.37816e-05
3.3597e-05
3.34412e-05
3.33171e-05
3.32242e-05
3.31591e-05
3.31164e-05
3.30904e-05
3.30756e-05
3.3068e-05
3.30646e-05
9.08453e-06
-8.04327e-05
9.16659e-05
8.763e-06
-4.43192e-05
4.46407e-05
9.08089e-06
-2.82272e-05
2.79093e-05
9.47754e-06
-1.8975e-05
1.85783e-05
9.84239e-06
-1.30584e-05
1.26936e-05
1.01451e-05
-9.13621e-06
8.8335e-06
1.0384e-05
-6.48079e-06
6.24193e-06
1.05671e-05
-4.6429e-06
4.45974e-06
1.07047e-05
-3.33926e-06
3.20165e-06
1.08061e-05
-2.39321e-06
2.29178e-06
1.08793e-05
-1.69543e-06
1.62225e-06
1.09308e-05
-1.17765e-06
1.1262e-06
1.09658e-05
-7.95497e-07
7.60462e-07
1.09888e-05
-5.18231e-07
4.95286e-07
1.10031e-05
-3.22921e-07
3.08583e-07
1.10116e-05
-1.90719e-07
1.82262e-07
1.10161e-05
-1.06967e-07
1.0239e-07
1.10187e-05
-5.37867e-08
5.12218e-08
1.10194e-05
-2.86049e-08
2.7885e-08
-3.1015e-09
2.32725e-09
1.27577e-05
-6.86047e-05
1.17024e-05
-4.32639e-05
1.19107e-05
-2.84355e-05
1.23356e-05
-1.93999e-05
1.2763e-05
-1.34858e-05
1.31309e-05
-9.50418e-06
1.34271e-05
-6.77701e-06
1.36569e-05
-4.8728e-06
1.38309e-05
-3.5133e-06
1.39597e-05
-2.52213e-06
1.4053e-05
-1.78875e-06
1.41187e-05
-1.24347e-06
1.41635e-05
-8.40386e-07
1.41929e-05
-5.47725e-07
1.42112e-05
-3.41586e-07
1.42221e-05
-2.02845e-07
1.42279e-05
-1.15283e-07
1.42312e-05
-5.50129e-08
1.42321e-05
-3.65218e-08
5.42331e-09
1.77294e-05
-5.67856e-05
1.57138e-05
-4.12484e-05
1.56826e-05
-2.84042e-05
1.60912e-05
-1.98086e-05
1.65709e-05
-1.39655e-05
1.70074e-05
-9.9407e-06
1.7369e-05
-7.13853e-06
1.76542e-05
-5.15806e-06
1.78724e-05
-3.73149e-06
1.80351e-05
-2.68481e-06
1.81533e-05
-1.90699e-06
1.82369e-05
-1.327e-06
1.82939e-05
-8.97455e-07
1.83314e-05
-5.85184e-07
1.83548e-05
-3.65027e-07
1.83687e-05
-2.16687e-07
1.83762e-05
-1.22781e-07
1.83803e-05
-5.92063e-08
1.83815e-05
-3.77177e-08
4.19128e-09
2.42859e-05
-4.56788e-05
2.11835e-05
-3.8146e-05
2.07362e-05
-2.79569e-05
2.10474e-05
-2.01198e-05
2.15497e-05
-1.44678e-05
2.2049e-05
-1.044e-05
2.24802e-05
-7.56978e-06
2.28287e-05
-5.50657e-06
2.30992e-05
-4.00195e-06
2.33027e-05
-2.88832e-06
2.34515e-05
-2.05582e-06
2.35571e-05
-1.43255e-06
2.36294e-05
-9.69756e-07
2.36769e-05
-6.32724e-07
2.37067e-05
-3.94811e-07
2.37243e-05
-2.34287e-07
2.37339e-05
-1.32331e-07
2.37391e-05
-6.4517e-08
2.37407e-05
-3.92769e-08
2.66751e-09
3.27084e-05
-3.5924e-05
2.85879e-05
-3.40256e-05
2.75301e-05
-2.6899e-05
2.7617e-05
-2.02067e-05
2.80812e-05
-1.49319e-05
2.86203e-05
-1.09791e-05
2.91171e-05
-8.0666e-06
2.95329e-05
-5.92238e-06
2.98624e-05
-4.33148e-06
3.01137e-05
-3.13956e-06
3.02989e-05
-2.24109e-06
3.04311e-05
-1.56469e-06
3.05219e-05
-1.06062e-06
3.05818e-05
-6.92617e-07
3.06194e-05
-4.32393e-07
3.06416e-05
-2.56516e-07
3.06537e-05
-1.44422e-07
3.06604e-05
-7.11944e-08
3.06624e-05
-4.13045e-08
8.06672e-10
4.33019e-05
-2.7906e-05
3.8475e-05
-2.91987e-05
3.66617e-05
-2.50857e-05
3.63583e-05
-1.99033e-05
3.66816e-05
-1.52552e-05
3.7209e-05
-1.15066e-05
3.77507e-05
-8.60828e-06
3.82291e-05
-6.40076e-06
3.86201e-05
-4.72252e-06
3.8924e-05
-3.44345e-06
3.91509e-05
-2.46797e-06
3.9314e-05
-1.72782e-06
3.94268e-05
-1.17339e-06
3.95014e-05
-7.67227e-07
3.95483e-05
-4.7932e-07
3.95761e-05
-2.84312e-07
3.95913e-05
-1.59584e-07
3.95995e-05
-7.95025e-08
3.96022e-05
-4.39246e-08
-1.42873e-09
5.64902e-05
-2.1641e-05
5.14457e-05
-2.41542e-05
4.88707e-05
-2.25107e-05
4.80086e-05
-1.90412e-05
4.80453e-05
-1.52919e-05
4.84698e-05
-1.19311e-05
4.90079e-05
-9.14641e-06
4.9527e-05
-6.91989e-06
4.99721e-05
-5.16763e-06
5.03281e-05
-3.79944e-06
5.05988e-05
-2.73864e-06
5.07958e-05
-1.92481e-06
5.09331e-05
-1.31068e-06
5.10244e-05
-8.58547e-07
5.1082e-05
-5.36959e-07
5.11162e-05
-3.18526e-07
5.1135e-05
-1.7831e-07
5.11451e-05
-8.96773e-08
5.11485e-05
-4.72675e-08
-4.05642e-09
7.2955e-05
-1.68345e-05
6.81773e-05
-1.93765e-05
6.50242e-05
-1.93576e-05
6.35055e-05
-1.75226e-05
6.30915e-05
-1.48778e-05
6.32787e-05
-1.21183e-05
6.37254e-05
-9.59318e-06
6.42347e-05
-7.42913e-06
6.47073e-05
-5.64032e-06
6.5103e-05
-4.19505e-06
6.54124e-05
-3.04812e-06
6.56419e-05
-2.15428e-06
6.58038e-05
-1.47261e-06
6.59124e-05
-9.67158e-07
6.59814e-05
-6.0588e-07
6.60224e-05
-3.59575e-07
6.60449e-05
-2.0087e-07
6.60571e-05
-1.0183e-07
6.60612e-05
-5.14312e-08
-7.0556e-09
9.37426e-05
-1.30744e-05
8.95263e-05
-1.51602e-05
8.61138e-05
-1.59452e-05
8.39845e-05
-1.53933e-05
8.29992e-05
-1.38925e-05
8.27931e-05
-1.19122e-05
8.30183e-05
-9.81834e-06
8.34261e-05
-7.83696e-06
8.38679e-05
-6.08218e-06
8.42682e-05
-4.59535e-06
8.45966e-05
-3.37651e-06
8.48477e-05
-2.40536e-06
8.50285e-05
-1.65345e-06
8.51515e-05
-1.0901e-06
8.52302e-05
-6.84581e-07
8.52773e-05
-4.06703e-07
8.53033e-05
-2.26905e-07
8.53172e-05
-1.15747e-07
8.53222e-05
-5.63914e-08
-1.03372e-08
0.000120297
0.00011668
0.000113312
0.000110771
0.000109219
0.000108503
0.000108356
0.000108527
0.000108834
0.000109167
0.000109467
0.00010971
0.000109892
0.000110019
0.000110102
0.000110151
0.000110179
0.000110194
0.000110199
7.92244e-07
-7.92244e-07
1.44729e-06
-6.55044e-07
1.9026e-06
-4.55309e-07
2.19865e-06
-2.96057e-07
2.39015e-06
-1.915e-07
2.5167e-06
-1.26546e-07
2.60263e-06
-8.59305e-08
2.66232e-06
-5.96938e-08
2.70437e-06
-4.20464e-08
2.73409e-06
-2.97193e-08
2.75495e-06
-2.08627e-08
2.76935e-06
-1.44032e-08
2.77904e-06
-9.69009e-09
2.78534e-06
-6.29538e-09
2.78925e-06
-3.91235e-09
2.79155e-06
-2.29964e-09
2.7928e-06
-1.25032e-09
2.79348e-06
-6.81054e-10
2.7937e-06
-2.16777e-10
-1.8375e-10
9.61615e-07
-1.75386e-06
1.75644e-06
-1.44987e-06
2.3088e-06
-1.00767e-06
2.66796e-06
-6.5521e-07
2.90028e-06
-4.23822e-07
3.0538e-06
-2.80074e-07
3.15806e-06
-1.90188e-07
3.23049e-06
-1.32121e-07
3.2815e-06
-9.30628e-08
3.31756e-06
-6.57794e-08
3.34288e-06
-4.61767e-08
3.36035e-06
-3.18797e-08
3.37211e-06
-2.14479e-08
3.37975e-06
-1.39343e-08
3.3845e-06
-8.66055e-09
3.38729e-06
-5.09089e-09
3.3888e-06
-2.76735e-09
3.38963e-06
-1.50906e-09
3.38989e-06
-4.77878e-10
-4.06722e-10
1.16781e-06
-2.92167e-06
2.13223e-06
-2.41428e-06
2.8021e-06
-1.67755e-06
3.23762e-06
-1.09073e-06
3.51937e-06
-7.05569e-07
3.70559e-06
-4.6629e-07
3.83206e-06
-3.16657e-07
3.91992e-06
-2.19986e-07
3.98181e-06
-1.54957e-07
4.02556e-06
-1.09529e-07
4.05628e-06
-7.689e-08
4.07748e-06
-5.3084e-08
4.09174e-06
-3.57139e-08
4.10101e-06
-2.32028e-08
4.10677e-06
-1.44217e-08
4.11016e-06
-8.47763e-09
4.112e-06
-4.60801e-09
4.113e-06
-2.51373e-09
4.11332e-06
-7.94646e-10
-6.77303e-10
1.41944e-06
-4.34112e-06
2.58959e-06
-3.58443e-06
3.40153e-06
-2.4895e-06
3.92931e-06
-1.61851e-06
4.27081e-06
-1.04707e-06
4.49658e-06
-6.92059e-07
4.64995e-06
-4.70023e-07
4.75651e-06
-3.26555e-07
4.83159e-06
-2.30035e-07
4.88466e-06
-1.62603e-07
4.92192e-06
-1.1415e-07
4.94765e-06
-7.8809e-08
4.96496e-06
-5.30217e-08
4.9762e-06
-3.44478e-08
4.98319e-06
-2.14114e-08
4.98729e-06
-1.25866e-08
4.98953e-06
-6.84119e-09
4.99074e-06
-3.73271e-09
4.99113e-06
-1.17888e-09
-1.00569e-09
1.72765e-06
-6.06877e-06
3.14732e-06
-5.00409e-06
4.13058e-06
-3.47277e-06
4.76951e-06
-2.25744e-06
5.18307e-06
-1.46063e-06
5.45661e-06
-9.656e-07
5.6425e-06
-6.55918e-07
5.77171e-06
-4.55766e-07
5.86276e-06
-3.21081e-07
5.92712e-06
-2.26973e-07
5.97232e-06
-1.59345e-07
6.00352e-06
-1.10014e-07
6.02452e-06
-7.40175e-08
6.03816e-06
-4.80891e-08
6.04664e-06
-2.98908e-08
6.05162e-06
-1.75714e-08
6.05433e-06
-9.55029e-09
6.0558e-06
-5.21166e-09
6.05627e-06
-1.64483e-09
-1.4043e-09
2.10727e-06
-8.17603e-06
3.82946e-06
-6.72628e-06
5.01853e-06
-4.66184e-06
5.79075e-06
-3.02965e-06
6.29088e-06
-1.96076e-06
6.62196e-06
-1.29668e-06
6.84711e-06
-8.81071e-07
7.00368e-06
-6.12342e-07
7.11405e-06
-4.31449e-07
7.1921e-06
-3.05021e-07
7.2469e-06
-2.14151e-07
7.28475e-06
-1.47859e-07
7.31021e-06
-9.94822e-08
7.32675e-06
-6.46348e-08
7.33704e-06
-4.01758e-08
7.34308e-06
-2.36178e-08
7.34636e-06
-1.28362e-08
7.34815e-06
-7.00584e-09
7.34872e-06
-2.20961e-09
-1.88826e-09
2.57878e-06
-1.07548e-05
4.66748e-06
-8.81499e-06
6.10228e-06
-6.09665e-06
7.03324e-06
-3.9606e-06
7.63678e-06
-2.5643e-06
8.03685e-06
-1.69676e-06
8.30924e-06
-1.15346e-06
8.49881e-06
-8.0192e-07
8.63252e-06
-5.65153e-07
8.7271e-06
-3.99606e-07
8.79353e-06
-2.80586e-07
8.83942e-06
-1.93741e-07
8.87029e-06
-1.30358e-07
8.89035e-06
-8.46977e-08
8.90282e-06
-5.26478e-08
8.91015e-06
-3.09501e-08
8.91413e-06
-1.68207e-08
8.9163e-06
-9.18216e-09
8.91699e-06
-2.89375e-09
-2.47606e-09
3.17179e-06
-1.39266e-05
5.70381e-06
-1.1347e-05
7.42914e-06
-7.82198e-06
8.54707e-06
-5.07854e-06
9.27302e-06
-3.29025e-06
9.75529e-06
-2.17903e-06
1.00842e-05
-1.4824e-06
1.03135e-05
-1.03116e-06
1.04753e-05
-7.26973e-07
1.05898e-05
-5.14148e-07
1.06703e-05
-3.61068e-07
1.07259e-05
-2.49339e-07
1.07633e-05
-1.67778e-07
1.07876e-05
-1.09016e-07
1.08028e-05
-6.77662e-08
1.08116e-05
-3.98386e-08
1.08165e-05
-2.16505e-08
1.08191e-05
-1.18215e-08
1.08199e-05
-3.72161e-09
-3.19039e-09
3.93137e-06
-1.7858e-05
6.99775e-06
-1.44134e-05
9.06105e-06
-9.88527e-06
1.03954e-05
-6.41288e-06
1.12642e-05
-4.15908e-06
1.18434e-05
-2.75822e-06
1.22396e-05
-1.87858e-06
1.25162e-05
-1.30783e-06
1.27118e-05
-9.22539e-07
1.28504e-05
-6.52701e-07
1.29478e-05
-4.58481e-07
1.30151e-05
-3.16659e-07
1.30604e-05
-2.131e-07
1.30899e-05
-1.38474e-07
1.31082e-05
-8.60821e-08
1.31189e-05
-5.0608e-08
1.31248e-05
-2.75013e-08
1.3128e-05
-1.50213e-08
1.3129e-05
-4.72181e-09
-4.05923e-09
4.93048e-06
-2.27885e-05
8.63576e-06
-1.81187e-05
1.10813e-05
-1.23308e-05
1.2659e-05
-7.99055e-06
1.36909e-05
-5.19097e-06
1.43825e-05
-3.44989e-06
1.48578e-05
-2.35381e-06
1.51907e-05
-1.64074e-06
1.54265e-05
-1.15837e-06
1.55938e-05
-8.20016e-07
1.57116e-05
-5.76223e-07
1.5793e-05
-3.98077e-07
1.58478e-05
-2.67936e-07
1.58835e-05
-1.74126e-07
1.59056e-05
-1.08253e-07
1.59187e-05
-6.36456e-08
1.59257e-05
-3.45827e-08
1.59296e-05
-1.8899e-08
1.59308e-05
-5.92736e-09
-5.11737e-09
6.29525e-06
-2.90837e-05
1.07497e-05
-2.25731e-05
1.36054e-05
-1.51865e-05
1.54431e-05
-9.82827e-06
1.66543e-05
-6.40218e-06
1.74733e-05
-4.26885e-06
1.80398e-05
-2.92038e-06
1.84387e-05
-2.03958e-06
1.87221e-05
-1.44182e-06
1.89237e-05
-1.02155e-06
1.90657e-05
-7.18246e-07
1.9164e-05
-4.96375e-07
1.92302e-05
-3.34181e-07
1.92733e-05
-2.17213e-07
1.93001e-05
-1.35055e-07
1.93159e-05
-7.94099e-08
1.93244e-05
-4.31419e-08
1.93291e-05
-2.35947e-08
1.93306e-05
-7.37514e-09
-6.40854e-09
8.26077e-06
-3.73445e-05
1.35497e-05
-2.78621e-05
1.67982e-05
-1.8435e-05
1.88879e-05
-1.19179e-05
2.02839e-05
-7.79824e-06
2.1241e-05
-5.22599e-06
2.19103e-05
-3.58966e-06
2.2385e-05
-2.51424e-06
2.2724e-05
-1.78084e-06
2.29658e-05
-1.26338e-06
2.31366e-05
-8.89026e-07
2.3255e-05
-6.14744e-07
2.33348e-05
-4.14027e-07
2.33868e-05
-2.69179e-07
2.34191e-05
-1.67394e-07
2.34381e-05
-9.84362e-08
2.34484e-05
-5.34662e-08
2.34541e-05
-2.92755e-08
2.34558e-05
-9.10413e-09
-7.98863e-09
1.13038e-05
-4.86483e-05
1.7384e-05
-3.39423e-05
2.09009e-05
-2.19519e-05
2.31831e-05
-1.42002e-05
2.47469e-05
-9.36203e-06
2.58436e-05
-6.3227e-06
2.66233e-05
-4.36937e-06
2.71826e-05
-3.07353e-06
2.75851e-05
-2.18333e-06
2.78736e-05
-1.5519e-06
2.8078e-05
-1.09344e-06
2.822e-05
-7.56724e-07
2.83159e-05
-5.09937e-07
2.83784e-05
-3.31659e-07
2.84173e-05
-2.063e-07
2.84402e-05
-1.21337e-07
2.84526e-05
-6.58815e-08
2.84594e-05
-3.61376e-08
2.84615e-05
-1.11512e-08
-9.93064e-09
1.64929e-05
-6.51412e-05
2.28402e-05
-4.02895e-05
2.62684e-05
-2.53801e-05
2.85895e-05
-1.65213e-05
3.02626e-05
-1.10351e-05
3.14815e-05
-7.54164e-06
3.23711e-05
-5.25892e-06
3.30203e-05
-3.72279e-06
3.34929e-05
-2.65591e-06
3.38342e-05
-1.89318e-06
3.40772e-05
-1.33641e-06
3.42465e-05
-9.26026e-07
3.43611e-05
-6.24548e-07
3.44358e-05
-4.06427e-07
3.44824e-05
-2.52903e-07
3.45099e-05
-1.48786e-07
3.45247e-05
-8.07422e-08
3.4533e-05
-4.44087e-08
3.45354e-05
-1.35418e-08
-1.23327e-08
2.65247e-05
3.08758e-05
3.3405e-05
3.5462e-05
3.71204e-05
3.84123e-05
3.93952e-05
4.01322e-05
4.06779e-05
4.10764e-05
4.13622e-05
4.15623e-05
4.16982e-05
4.1787e-05
4.18425e-05
4.18752e-05
4.18928e-05
4.19027e-05
4.19055e-05
)
;

boundaryField
{
    inlet
    {
        type            calculated;
        value           nonuniform List<scalar> 
20
(
-1.23982e-05
-1.60129e-05
-2.06814e-05
-2.67111e-05
-3.44987e-05
-4.45568e-05
-5.75474e-05
-7.43253e-05
-9.59948e-05
-0.000123982
-0.000371946
-0.000287984
-0.000222976
-0.000172642
-0.00013367
-0.000103496
-8.01334e-05
-6.20443e-05
-4.80387e-05
-3.71946e-05
)
;
    }
    outlet
    {
        type            calculated;
        value           nonuniform List<scalar> 
35
(
2.79388e-06
3.39011e-06
4.11359e-06
4.99145e-06
6.05667e-06
7.3492e-06
8.91757e-06
1.08206e-05
1.31299e-05
1.59319e-05
1.93318e-05
2.34574e-05
2.84634e-05
3.45378e-05
4.19084e-05
1.10202e-05
1.42331e-05
1.83828e-05
2.37422e-05
3.06643e-05
3.96044e-05
5.11511e-05
6.60642e-05
8.53254e-05
0.000110203
0.000330612
0.000255987
0.000198205
0.000153465
0.000118823
9.2001e-05
7.12332e-05
5.51533e-05
4.27032e-05
3.30636e-05
)
;
    }
    frontAndBack
    {
        type            empty;
        value           nonuniform 0();
    }
    noslipwall
    {
        type            calculated;
        value           uniform 0;
    }
}


// ************************************************************************* //
