/*--------------------------------*- C++ -*----------------------------------*\
  =========                 |
  \\      /  F ield         | OpenFOAM: The Open Source CFD Toolbox
   \\    /   O peration     | Website:  https://openfoam.org
    \\  /    A nd           | Version:  7
     \\/     M anipulation  |
\*---------------------------------------------------------------------------*/
FoamFile
{
    version     2.0;
    format      ascii;
    class       surfaceScalarField;
    location    "0";
    object      phi4;
}
// * * * * * * * * * * * * * * * * * * * * * * * * * * * * * * * * * * * * * //

dimensions      [0 3 -1 0 0 0 0];

internalField   nonuniform List<scalar> 
1735
(
1.49145e-05
2.8659e-12
1.49145e-05
-3.08962e-11
1.49152e-05
-7.14642e-10
1.49236e-05
-8.37663e-09
1.49714e-05
-4.78332e-08
1.51285e-05
-1.57067e-07
1.54954e-05
-3.66889e-07
1.6247e-05
-7.51672e-07
1.79497e-05
-1.70268e-06
-6.49165e-06
2.44414e-05
1.92628e-05
3.16675e-12
1.92628e-05
-6.71282e-11
1.92637e-05
-1.64004e-09
1.92746e-05
-1.91896e-08
1.93363e-05
-1.09581e-07
1.9539e-05
-3.59776e-07
2.00122e-05
-8.40057e-07
2.09789e-05
-1.71842e-06
2.31307e-05
-3.85441e-06
-1.29364e-05
2.95754e-05
2.48788e-05
3.56198e-12
2.48789e-05
-1.1387e-10
2.48801e-05
-2.83371e-09
2.4894e-05
-3.31363e-08
2.49736e-05
-1.89206e-07
2.52349e-05
-6.21004e-07
2.58434e-05
-1.44856e-06
2.70767e-05
-2.95176e-06
2.97054e-05
-6.48305e-06
-1.87764e-05
3.55454e-05
3.21322e-05
4.07703e-12
3.21323e-05
-1.74073e-10
3.21338e-05
-4.37096e-09
3.21518e-05
-5.1095e-08
3.22543e-05
-2.9169e-07
3.259e-05
-9.56727e-07
3.33684e-05
-2.22699e-06
3.49192e-05
-4.50248e-06
3.79722e-05
-9.53611e-06
-2.33801e-05
4.25759e-05
4.15004e-05
4.7482e-12
4.15005e-05
-2.514e-10
4.15024e-05
-6.34504e-09
4.15255e-05
-7.41506e-08
4.16569e-05
-4.23134e-07
4.20863e-05
-1.38606e-06
4.30728e-05
-3.21348e-06
4.49748e-05
-6.40449e-06
4.82679e-05
-1.28292e-05
-2.61934e-05
5.10812e-05
5.35998e-05
5.63443e-12
5.35999e-05
-3.50233e-10
5.36024e-05
-8.86712e-09
5.36319e-05
-1.03592e-07
5.37994e-05
-5.90685e-07
5.43437e-05
-1.93033e-06
5.55735e-05
-4.4433e-06
5.78136e-05
-8.64461e-06
6.09962e-05
-1.60118e-05
-2.69327e-05
6.17354e-05
6.92268e-05
6.82152e-12
6.9227e-05
-4.75462e-10
6.92301e-05
-1.20604e-08
6.92674e-05
-1.40833e-07
6.94786e-05
-8.01942e-07
7.01581e-05
-2.60977e-06
7.16489e-05
-5.9341e-06
7.41218e-05
-1.11176e-05
7.6703e-05
-1.85929e-05
-2.57214e-05
7.54917e-05
8.94099e-05
8.45034e-12
8.94101e-05
-6.31713e-10
8.9414e-05
-1.60392e-08
8.94604e-05
-1.87158e-07
8.97216e-05
-1.06321e-06
9.05473e-05
-3.43542e-06
9.22707e-05
-7.65755e-06
9.47332e-05
-1.35801e-05
9.62046e-05
-2.00644e-05
-2.30602e-05
9.35434e-05
0.000115477
1.07658e-11
0.000115478
-8.21344e-10
0.000115482
-2.08555e-08
0.000115538
-2.43069e-07
0.00011585
-1.37531e-06
0.000116807
-4.39174e-06
0.000118644
-9.49454e-06
0.000120704
-1.56408e-05
0.000120741
-2.01009e-05
-1.96107e-05
0.000117291
0.000149145
1.42167e-11
0.000149145
-1.03989e-09
0.00014915
-2.63774e-08
0.000149214
-3.06831e-07
0.000149563
-1.72465e-06
0.000150576
-5.40468e-06
0.000152263
-1.11814e-05
0.000153463
-1.68402e-05
0.000152105
-1.87432e-05
-1.5925e-05
0.000148419
0.000447434
7.34954e-11
0.000447435
-1.51757e-09
0.000447445
-3.69448e-08
0.000447565
-4.2656e-07
0.000448169
-2.32918e-06
0.000449502
-6.73729e-06
0.00045015
-1.18296e-05
0.000447455
-1.4145e-05
0.000441404
-1.26919e-05
-9.49892e-06
0.000434977
0.000346432
5.01819e-11
0.000346432
-1.48253e-09
0.000346432
-3.66538e-08
0.000346425
-4.20315e-07
0.000346346
-2.25015e-06
0.000345802
-6.1932e-06
0.000343913
-9.94059e-06
0.000340442
-1.06742e-05
0.000336568
-8.81759e-06
-6.33035e-06
0.000333399
0.00026823
3.48996e-11
0.00026823
-1.26032e-09
0.000268224
-3.13941e-08
0.000268162
-3.58452e-07
0.000267808
-1.89561e-06
0.00026668
-5.06541e-06
0.000264469
-7.72975e-06
0.00026165
-7.85471e-06
0.000259083
-6.25058e-06
-4.41036e-06
0.000257163
0.00020768
2.44808e-11
0.00020768
-9.87937e-10
0.000207674
-2.47493e-08
0.000207597
-2.81839e-07
0.000207181
-1.47975e-06
0.000206003
-3.88719e-06
0.000204039
-5.76591e-06
0.000201874
-5.68998e-06
0.000200069
-4.44532e-06
-3.1109e-06
0.00019877
0.000160799
1.70655e-11
0.000160799
-7.29515e-10
0.000160793
-1.83926e-08
0.00016072
-2.09105e-07
0.000160334
-1.09341e-06
0.000159291
-2.84485e-06
0.00015768
-4.15409e-06
0.000156025
-4.03555e-06
0.000154703
-3.1231e-06
-2.17654e-06
0.000153769
0.000124501
1.16016e-11
0.000124501
-5.08183e-10
0.000124495
-1.2932e-08
0.000124433
-1.46854e-07
0.000124106
-7.66209e-07
0.000123244
-1.98316e-06
0.000121962
-2.87147e-06
0.000120693
-2.76645e-06
0.0001197
-2.13049e-06
-1.48162e-06
0.000119005
9.63967e-05
7.47922e-12
9.63966e-05
-3.27813e-10
9.63921e-05
-8.4774e-09
9.63414e-05
-9.61625e-08
9.60764e-05
-5.01179e-07
9.53869e-05
-1.29369e-06
9.43805e-05
-1.86504e-06
9.34032e-05
-1.78923e-06
9.26473e-05
-1.37453e-06
-9.54879e-07
9.21205e-05
7.46365e-05
4.32276e-12
7.46364e-05
-1.8459e-10
7.46328e-05
-4.93939e-09
7.45926e-05
-5.59367e-08
7.43828e-05
-2.91412e-07
7.38404e-05
-7.51246e-07
7.30561e-05
-1.0808e-06
7.23017e-05
-1.03481e-06
7.17212e-05
-7.94045e-07
-5.51345e-07
7.13177e-05
5.77883e-05
1.88759e-12
5.77882e-05
-7.24294e-11
5.77854e-05
-2.16906e-09
5.7754e-05
-2.44507e-08
5.75899e-05
-1.2741e-07
5.7167e-05
-3.2827e-07
5.65581e-05
-4.71898e-07
5.59747e-05
-4.51461e-07
5.55269e-05
-3.46265e-07
-2.40382e-07
5.5216e-05
4.47434e-05
4.47433e-05
4.47411e-05
4.47167e-05
4.45893e-05
4.4261e-05
4.37891e-05
4.33377e-05
4.29914e-05
4.2751e-05
0.000429802
-6.84496e-06
1.20208e-05
0.000423737
-7.82057e-06
1.38851e-05
0.0004173
-8.6923e-06
1.51297e-05
0.000411167
-9.32925e-06
1.54614e-05
0.000405939
-9.61617e-06
1.48443e-05
0.000401959
-9.48813e-06
1.34688e-05
0.000399273
-8.94866e-06
1.1634e-05
0.000397706
-8.06542e-06
9.63286e-06
0.000396968
-6.94857e-06
7.68622e-06
0.000396763
-5.7229e-06
5.92852e-06
0.000396843
-4.50376e-06
4.42308e-06
0.000397039
-3.38179e-06
3.18629e-06
0.000397248
-2.41672e-06
2.20791e-06
0.000397421
-1.6377e-06
1.46383e-06
0.000397546
-1.04753e-06
9.22673e-07
0.000397626
-6.29026e-07
5.49193e-07
0.000397672
-3.52173e-07
3.06301e-07
0.000397696
-1.81432e-07
1.56964e-07
0.000397706
-8.35334e-08
7.43414e-08
-2.21948e-08
1.63769e-08
0.000331046
-4.49189e-06
0.000328332
-5.10651e-06
0.000325341
-5.70065e-06
0.000322223
-6.21154e-06
0.000319174
-6.56681e-06
0.000316385
-6.69985e-06
0.000314004
-6.56751e-06
0.000312102
-6.16378e-06
0.000310678
-5.52371e-06
0.000309671
-4.71624e-06
0.000308996
-3.82876e-06
0.000308563
-2.94896e-06
0.000308296
-2.14935e-06
0.000308136
-1.47776e-06
0.000308043
-9.5477e-07
0.000307991
-5.77019e-07
0.000307963
-3.24239e-07
0.000307949
-1.67421e-07
0.000307942
-7.67696e-08
-2.10503e-08
0.00025578
-3.10923e-06
0.0002542
-3.52627e-06
0.000252441
-3.9417e-06
0.000250549
-4.32017e-06
0.000248599
-4.61647e-06
0.000246681
-4.78205e-06
0.000244889
-4.77569e-06
0.000243301
-4.57543e-06
0.000241965
-4.1874e-06
0.000240896
-3.64744e-06
0.000240082
-3.01435e-06
0.000239489
-2.35673e-06
0.000239078
-1.73822e-06
0.000238806
-1.20574e-06
0.000238635
-7.83896e-07
0.000238534
-4.75682e-07
0.000238478
-2.67925e-07
0.000238449
-1.38543e-07
0.000238435
-6.33902e-08
-1.76773e-08
0.000197847
-2.18632e-06
0.000196797
-2.4766e-06
0.000195625
-2.76972e-06
0.000194348
-3.04369e-06
0.000193001
-3.26897e-06
0.000191631
-3.41161e-06
0.000190294
-3.43959e-06
0.00018905
-3.33133e-06
0.000187947
-3.08373e-06
0.000187015
-2.71603e-06
0.000186268
-2.26735e-06
0.0001857
-1.78801e-06
0.000185289
-1.32789e-06
0.000185009
-9.25924e-07
0.00018483
-6.04201e-07
0.000184722
-3.67532e-07
0.000184661
-2.07308e-07
0.00018463
-1.07288e-07
0.000184615
-4.9051e-08
-1.37783e-08
0.000153109
-1.52725e-06
0.000152362
-1.72894e-06
0.000151526
-1.93398e-06
0.00015061
-2.12803e-06
0.000149633
-2.29136e-06
0.000148622
-2.40052e-06
0.000147614
-2.43226e-06
0.000146652
-2.36938e-06
0.000145776
-2.20685e-06
0.000145015
-1.95558e-06
0.000144389
-1.64168e-06
0.000143902
-1.30087e-06
0.000143544
-9.69874e-07
0.000143297
-6.78282e-07
0.000143136
-4.43535e-07
0.000143039
-2.70176e-07
0.000142984
-1.5252e-07
0.000142956
-7.89711e-08
0.000142943
-3.6093e-08
-1.01735e-08
0.000118517
-1.03879e-06
0.000117963
-1.1756e-06
0.000117344
-1.31514e-06
0.000116664
-1.44804e-06
0.000115934
-1.5612e-06
0.000115173
-1.63882e-06
0.000114405
-1.66481e-06
0.000113662
-1.62673e-06
0.000112976
-1.52012e-06
0.000112372
-1.35145e-06
0.000111868
-1.13795e-06
0.000111471
-9.04073e-07
0.000111177
-6.75468e-07
0.000110972
-4.7315e-07
0.000110838
-3.09753e-07
0.000110756
-1.88827e-07
0.000110711
-1.06646e-07
0.000110687
-5.52327e-08
0.000110676
-2.52397e-08
-7.12631e-09
9.1751e-05
-6.6921e-07
9.13326e-05
-7.57217e-07
9.08646e-05
-8.47139e-07
9.03496e-05
-9.33044e-07
8.9795e-05
-1.00662e-06
8.92139e-05
-1.05772e-06
8.8625e-05
-1.0759e-06
8.80512e-05
-1.05293e-06
8.75166e-05
-9.85577e-07
8.70429e-05
-8.77686e-07
8.66451e-05
-7.40187e-07
8.63299e-05
-5.88851e-07
8.60948e-05
-4.40435e-07
8.59305e-05
-3.08772e-07
8.5823e-05
-2.02262e-07
8.57575e-05
-1.23349e-07
8.57205e-05
-6.96819e-08
8.57014e-05
-3.60929e-08
8.56927e-05
-1.64918e-08
-4.66007e-09
7.10348e-05
-3.86326e-07
7.07147e-05
-4.37098e-07
7.03565e-05
-4.89015e-07
6.99622e-05
-5.38685e-07
6.95369e-05
-5.8134e-07
6.90903e-05
-6.11136e-07
6.86364e-05
-6.22025e-07
6.81927e-05
-6.09187e-07
6.77778e-05
-5.70673e-07
6.74087e-05
-5.08604e-07
6.70978e-05
-4.29242e-07
6.68506e-05
-3.41699e-07
6.66659e-05
-2.55709e-07
6.65365e-05
-1.79339e-07
6.64517e-05
-1.17509e-07
6.64e-05
-7.16762e-08
6.63709e-05
-4.04955e-08
6.63557e-05
-2.0976e-08
6.63488e-05
-9.58347e-09
-2.70874e-09
5.49981e-05
-1.68423e-07
5.47515e-05
-1.90551e-07
5.44757e-05
-2.13186e-07
5.41719e-05
-2.34854e-07
5.3844e-05
-2.5348e-07
5.34994e-05
-2.66521e-07
5.31487e-05
-2.71335e-07
5.28053e-05
-2.65811e-07
5.24837e-05
-2.49084e-07
5.21972e-05
-2.22062e-07
5.19554e-05
-1.87466e-07
5.1763e-05
-1.4927e-07
5.1619e-05
-1.11729e-07
5.1518e-05
-7.83721e-08
5.14519e-05
-5.13577e-08
5.14115e-05
-3.13284e-08
5.13887e-05
-1.77003e-08
5.13769e-05
-9.1677e-09
5.13715e-05
-4.18745e-09
-1.18332e-09
4.25826e-05
4.2392e-05
4.21788e-05
4.1944e-05
4.16905e-05
4.1424e-05
4.11527e-05
4.08868e-05
4.06378e-05
4.04157e-05
4.02282e-05
4.0079e-05
3.99672e-05
3.98889e-05
3.98375e-05
3.98062e-05
3.97885e-05
3.97793e-05
3.97751e-05
1.09283e-05
-9.67568e-05
0.00011027
1.05415e-05
-5.33139e-05
5.37007e-05
1.09239e-05
-3.3956e-05
3.35736e-05
1.1401e-05
-2.2826e-05
2.23488e-05
1.18399e-05
-1.57087e-05
1.52698e-05
1.22041e-05
-1.09904e-05
1.06263e-05
1.24914e-05
-7.7961e-06
7.50876e-06
1.27117e-05
-5.58519e-06
5.36487e-06
1.28773e-05
-4.01698e-06
3.85144e-06
1.29993e-05
-2.87892e-06
2.7569e-06
1.30873e-05
-2.03953e-06
1.95149e-06
1.31492e-05
-1.41666e-06
1.35477e-06
1.31914e-05
-9.56946e-07
9.14801e-07
1.3219e-05
-6.23408e-07
5.95806e-07
1.32362e-05
-3.88459e-07
3.71211e-07
1.32464e-05
-2.29426e-07
2.19253e-07
1.32519e-05
-1.28677e-07
1.23171e-07
1.3255e-05
-6.4703e-08
6.16174e-08
1.32558e-05
-3.44103e-08
3.35443e-08
-3.73096e-09
2.79957e-09
1.53469e-05
-8.25283e-05
1.40775e-05
-5.20445e-05
1.4328e-05
-3.42065e-05
1.48392e-05
-2.33372e-05
1.53533e-05
-1.62228e-05
1.57959e-05
-1.14331e-05
1.61522e-05
-8.15243e-06
1.64286e-05
-5.86175e-06
1.66379e-05
-4.22634e-06
1.67929e-05
-3.03401e-06
1.69051e-05
-2.15178e-06
1.69841e-05
-1.49584e-06
1.7038e-05
-1.01095e-06
1.70734e-05
-6.58888e-07
1.70954e-05
-4.10913e-07
1.71085e-05
-2.44013e-07
1.71155e-05
-1.3868e-07
1.71195e-05
-6.6178e-08
1.71206e-05
-4.3934e-08
6.524e-09
2.13276e-05
-6.83105e-05
1.8903e-05
-4.96199e-05
1.88654e-05
-3.41689e-05
1.9357e-05
-2.38288e-05
1.99341e-05
-1.67999e-05
2.04592e-05
-1.19582e-05
2.08941e-05
-8.58732e-06
2.12372e-05
-6.20491e-06
2.14997e-05
-4.48881e-06
2.16954e-05
-3.2297e-06
2.18376e-05
-2.29403e-06
2.19381e-05
-1.59632e-06
2.20067e-05
-1.0796e-06
2.20518e-05
-7.03949e-07
2.208e-05
-4.39111e-07
2.20966e-05
-2.60665e-07
2.21057e-05
-1.47699e-07
2.21107e-05
-7.12225e-08
2.21121e-05
-4.53727e-08
5.04192e-09
2.92148e-05
-5.49495e-05
2.54828e-05
-4.58879e-05
2.49447e-05
-3.36308e-05
2.53191e-05
-2.42032e-05
2.59233e-05
-1.74041e-05
2.65239e-05
-1.25589e-05
2.70427e-05
-9.1061e-06
2.74619e-05
-6.62415e-06
2.77873e-05
-4.81416e-06
2.80321e-05
-3.47452e-06
2.82111e-05
-2.47305e-06
2.83381e-05
-1.72329e-06
2.84251e-05
-1.16657e-06
2.84823e-05
-7.61138e-07
2.85181e-05
-4.74939e-07
2.85392e-05
-2.81836e-07
2.85507e-05
-1.59188e-07
2.85571e-05
-7.7611e-08
2.8559e-05
-4.72483e-08
3.2089e-09
3.93467e-05
-4.3215e-05
3.439e-05
-4.09312e-05
3.31174e-05
-3.23583e-05
3.3222e-05
-2.43078e-05
3.37804e-05
-1.79624e-05
3.44289e-05
-1.32074e-05
3.50265e-05
-9.70374e-06
3.55267e-05
-7.12435e-06
3.59231e-05
-5.21057e-06
3.62254e-05
-3.77675e-06
3.64482e-05
-2.69593e-06
3.66072e-05
-1.88225e-06
3.67165e-05
-1.27587e-06
3.67885e-05
-8.33186e-07
3.68337e-05
-5.20149e-07
3.68605e-05
-3.08577e-07
3.6875e-05
-1.73733e-07
3.6883e-05
-8.56436e-08
3.68855e-05
-4.96874e-08
9.70393e-10
5.20901e-05
-3.35697e-05
4.62837e-05
-3.51247e-05
4.41024e-05
-3.0177e-05
4.37373e-05
-2.39427e-05
4.41262e-05
-1.83513e-05
4.47608e-05
-1.38419e-05
4.54124e-05
-1.03554e-05
4.59878e-05
-7.69982e-06
4.64582e-05
-5.68097e-06
4.68238e-05
-4.14231e-06
4.70967e-05
-2.96885e-06
4.7293e-05
-2.07849e-06
4.74286e-05
-1.41154e-06
4.75184e-05
-9.22938e-07
4.75748e-05
-5.766e-07
4.76082e-05
-3.42014e-07
4.76265e-05
-1.91972e-07
4.76364e-05
-9.56379e-08
4.76396e-05
-5.28393e-08
-1.71869e-09
6.79552e-05
-2.60331e-05
6.18868e-05
-2.90564e-05
5.87892e-05
-2.70794e-05
5.77521e-05
-2.29057e-05
5.77963e-05
-1.83954e-05
5.83069e-05
-1.43526e-05
5.89543e-05
-1.10027e-05
5.95787e-05
-8.3243e-06
6.01142e-05
-6.21642e-06
6.05424e-05
-4.57055e-06
6.0868e-05
-3.29446e-06
6.1105e-05
-2.31546e-06
6.12702e-05
-1.57669e-06
6.138e-05
-1.03279e-06
6.14493e-05
-6.45936e-07
6.14905e-05
-3.83172e-07
6.1513e-05
-2.14499e-07
6.15252e-05
-1.07878e-07
6.15293e-05
-5.68606e-08
-4.87969e-09
8.77615e-05
-2.02511e-05
8.20141e-05
-2.3309e-05
7.82211e-05
-2.32864e-05
7.63942e-05
-2.10789e-05
7.58962e-05
-1.78974e-05
7.61213e-05
-1.45777e-05
7.66587e-05
-1.15402e-05
7.72713e-05
-8.9369e-06
7.784e-05
-6.78505e-06
7.83159e-05
-5.04646e-06
7.86881e-05
-3.66675e-06
7.89642e-05
-2.5915e-06
7.9159e-05
-1.77149e-06
7.92896e-05
-1.16345e-06
7.93725e-05
-7.28846e-07
7.94219e-05
-4.32552e-07
7.9449e-05
-2.41637e-07
7.94636e-05
-1.22497e-07
7.94686e-05
-6.18694e-08
-8.48756e-09
0.000112768
-1.57279e-05
0.000107696
-1.8237e-05
0.000103591
-1.91813e-05
0.00010103
-1.85174e-05
9.98442e-05
-1.6712e-05
9.95963e-05
-1.43298e-05
9.98671e-05
-1.1811e-05
0.000100358
-9.4275e-06
0.000100889
-7.31658e-06
0.000101371
-5.52799e-06
0.000101766
-4.06178e-06
0.000102068
-2.89354e-06
0.000102285
-1.98902e-06
0.000102433
-1.31134e-06
0.000102528
-8.2352e-07
0.000102585
-4.89245e-07
0.000102616
-2.72956e-07
0.000102633
-1.39238e-07
0.000102639
-6.78362e-08
-1.24352e-08
0.000144712
0.00014036
0.000136309
0.000133253
0.000131385
0.000130524
0.000130347
0.000130552
0.000130922
0.000131323
0.000131684
0.000131977
0.000132195
0.000132348
0.000132447
0.000132507
0.00013254
0.000132558
0.000132565
9.53033e-07
-9.53033e-07
1.74102e-06
-7.87987e-07
2.28874e-06
-5.47716e-07
2.64488e-06
-3.56143e-07
2.87524e-06
-2.30366e-07
3.02747e-06
-1.52229e-07
3.13084e-06
-1.0337e-07
3.20265e-06
-7.18089e-08
3.25323e-06
-5.05799e-08
3.28898e-06
-3.57509e-08
3.31408e-06
-2.50968e-08
3.3314e-06
-1.73264e-08
3.34306e-06
-1.16567e-08
3.35063e-06
-7.57305e-09
3.35534e-06
-4.70638e-09
3.35811e-06
-2.76636e-09
3.35961e-06
-1.50408e-09
3.36043e-06
-8.19277e-10
3.36069e-06
-2.60772e-10
-2.21043e-10
1.15678e-06
-2.10981e-06
2.11292e-06
-1.74413e-06
2.77738e-06
-1.21218e-06
3.20943e-06
-7.88187e-07
3.4889e-06
-5.09838e-07
3.67359e-06
-3.36916e-07
3.799e-06
-2.28787e-07
3.88613e-06
-1.58936e-07
3.9475e-06
-1.1195e-07
3.99088e-06
-7.91295e-08
4.02133e-06
-5.55485e-08
4.04235e-06
-3.83498e-08
4.05649e-06
-2.58009e-08
4.06568e-06
-1.67623e-08
4.07139e-06
-1.04182e-08
4.07475e-06
-6.12411e-09
4.07657e-06
-3.329e-09
4.07757e-06
-1.81533e-09
4.07788e-06
-5.74865e-10
-4.89268e-10
1.40482e-06
-3.51464e-06
2.56497e-06
-2.90427e-06
3.3708e-06
-2.01802e-06
3.89471e-06
-1.3121e-06
4.23364e-06
-8.48767e-07
4.45765e-06
-5.60925e-07
4.60979e-06
-3.80924e-07
4.71548e-06
-2.64633e-07
4.78994e-06
-1.86406e-07
4.84257e-06
-1.31759e-07
4.87951e-06
-9.24951e-08
4.90502e-06
-6.38576e-08
4.92218e-06
-4.29622e-08
4.93333e-06
-2.79119e-08
4.94026e-06
-1.73486e-08
4.94433e-06
-1.01982e-08
4.94654e-06
-5.54323e-09
4.94775e-06
-3.0239e-09
4.94813e-06
-9.55923e-10
-8.14765e-10
1.70753e-06
-5.22216e-06
3.11515e-06
-4.3119e-06
4.09189e-06
-2.99475e-06
4.72678e-06
-1.947e-06
5.13759e-06
-1.25957e-06
5.40918e-06
-8.32515e-07
5.59367e-06
-5.65416e-07
5.72187e-06
-3.92831e-07
5.81218e-06
-2.76721e-07
5.87603e-06
-1.95604e-07
5.92085e-06
-1.37317e-07
5.95179e-06
-9.48036e-08
5.97261e-06
-6.37827e-08
5.98614e-06
-4.14391e-08
5.99455e-06
-2.57569e-08
5.99949e-06
-1.51411e-08
6.00217e-06
-8.22963e-09
6.00363e-06
-4.49028e-09
6.0041e-06
-1.41814e-09
-1.2098e-09
2.07828e-06
-7.30045e-06
3.78608e-06
-6.01969e-06
4.9689e-06
-4.17758e-06
5.7375e-06
-2.71559e-06
6.23499e-06
-1.75707e-06
6.56405e-06
-1.16157e-06
6.78767e-06
-7.89039e-07
6.9431e-06
-5.48265e-07
7.05262e-06
-3.86246e-07
7.13006e-06
-2.73038e-07
7.18442e-06
-1.91685e-07
7.22196e-06
-1.32342e-07
7.24722e-06
-8.90396e-08
7.26363e-06
-5.7849e-08
7.27383e-06
-3.59573e-08
7.27982e-06
-2.11376e-08
7.28308e-06
-1.14886e-08
7.28485e-06
-6.26938e-09
7.28541e-06
-1.97865e-09
-1.68931e-09
2.53494e-06
-9.83539e-06
4.60666e-06
-8.09141e-06
6.03706e-06
-5.60798e-06
6.966e-06
-3.64453e-06
7.56764e-06
-2.3587e-06
7.96591e-06
-1.55984e-06
8.23676e-06
-1.05989e-06
8.42511e-06
-7.36619e-07
8.55787e-06
-5.19013e-07
8.65176e-06
-3.66926e-07
8.71769e-06
-2.57614e-07
8.76321e-06
-1.77868e-07
8.79385e-06
-1.19672e-07
8.81375e-06
-7.77527e-08
8.82612e-06
-4.83296e-08
8.83339e-06
-2.84111e-08
8.83734e-06
-1.54414e-08
8.83949e-06
-8.4277e-09
8.84017e-06
-2.65806e-09
-2.27149e-09
3.10215e-06
-1.29375e-05
5.61477e-06
-1.0604e-05
7.34077e-06
-7.33399e-06
8.46066e-06
-4.76443e-06
9.18669e-06
-3.08474e-06
9.66796e-06
-2.04112e-06
9.99563e-06
-1.38755e-06
1.02237e-05
-9.64673e-07
1.03845e-05
-6.79853e-07
1.04983e-05
-4.80707e-07
1.05782e-05
-3.37532e-07
1.06334e-05
-2.33062e-07
1.06706e-05
-1.56815e-07
1.06947e-05
-1.01887e-07
1.07097e-05
-6.33329e-08
1.07185e-05
-3.72315e-08
1.07233e-05
-2.02345e-08
1.07259e-05
-1.10457e-08
1.07267e-05
-3.48105e-09
-2.97859e-09
3.81551e-06
-1.67531e-05
6.86142e-06
-1.36499e-05
8.93691e-06
-9.40948e-06
1.02817e-05
-6.10924e-06
1.1155e-05
-3.95802e-06
1.17352e-05
-2.62127e-06
1.21309e-05
-1.78326e-06
1.24066e-05
-1.24044e-06
1.26013e-05
-8.74515e-07
1.27391e-05
-6.18496e-07
1.28359e-05
-4.34349e-07
1.29028e-05
-2.99943e-07
1.29478e-05
-2.0183e-07
1.2977e-05
-1.31141e-07
1.29952e-05
-8.15196e-08
1.30059e-05
-4.79241e-08
1.30117e-05
-2.60445e-08
1.30149e-05
-1.42207e-08
1.30159e-05
-4.47692e-09
-3.83789e-09
4.72926e-06
-2.14823e-05
8.41797e-06
-1.73386e-05
1.09e-05
-1.18915e-05
1.25052e-05
-7.7144e-06
1.35503e-05
-5.00319e-06
1.42471e-05
-3.31801e-06
1.47237e-05
-2.25985e-06
1.50565e-05
-1.57325e-06
1.52917e-05
-1.10977e-06
1.54584e-05
-7.85169e-07
1.55756e-05
-5.51531e-07
1.56566e-05
-3.80926e-07
1.57111e-05
-2.5635e-07
1.57465e-05
-1.66578e-07
1.57685e-05
-1.03553e-07
1.57815e-05
-6.08791e-08
1.57885e-05
-3.30828e-08
1.57924e-05
-1.807e-08
1.57936e-05
-5.68012e-09
-4.88307e-09
5.93114e-06
-2.74135e-05
1.03884e-05
-2.17959e-05
1.33303e-05
-1.48334e-05
1.52282e-05
-9.61226e-06
1.64695e-05
-6.2445e-06
1.73015e-05
-4.15006e-06
1.78732e-05
-2.83152e-06
1.82737e-05
-1.97374e-06
1.85574e-05
-1.39347e-06
1.87586e-05
-9.86442e-07
1.89003e-05
-6.9317e-07
1.89982e-05
-4.78868e-07
1.90642e-05
-3.22314e-07
1.91071e-05
-2.09465e-07
1.91337e-05
-1.30223e-07
1.91494e-05
-7.65628e-08
1.91579e-05
-4.16014e-08
1.91626e-05
-2.27346e-08
1.9164e-05
-7.13034e-09
-6.15596e-09
7.5729e-06
-3.49864e-05
1.29314e-05
-2.71544e-05
1.63667e-05
-1.82687e-05
1.85774e-05
-1.1823e-05
2.00344e-05
-7.70153e-06
2.10196e-05
-5.13523e-06
2.17011e-05
-3.51308e-06
2.21809e-05
-2.45352e-06
2.25219e-05
-1.73445e-06
2.27643e-05
-1.22888e-06
2.29351e-05
-8.64017e-07
2.30534e-05
-5.97117e-07
2.31331e-05
-4.02004e-07
2.31849e-05
-2.61297e-07
2.32171e-05
-1.62465e-07
2.32361e-05
-9.55264e-08
2.32464e-05
-5.18977e-08
2.3252e-05
-2.83834e-08
2.32538e-05
-8.87195e-09
-7.70918e-09
9.93732e-06
-4.49237e-05
1.62997e-05
-3.35168e-05
2.02075e-05
-2.21764e-05
2.27212e-05
-1.43367e-05
2.44006e-05
-9.38092e-06
2.5552e-05
-6.28663e-06
2.63571e-05
-4.31819e-06
2.69281e-05
-3.02451e-06
2.73359e-05
-2.14227e-06
2.76268e-05
-1.51978e-06
2.78323e-05
-1.06946e-06
2.79746e-05
-7.39509e-07
2.80707e-05
-4.98056e-07
2.81332e-05
-3.2381e-07
2.81721e-05
-2.01367e-07
2.8195e-05
-1.18414e-07
2.82074e-05
-6.43174e-08
2.82142e-05
-3.52171e-08
2.82163e-05
-1.09519e-08
-9.60995e-09
1.3598e-05
-5.85217e-05
2.09122e-05
-4.0831e-05
2.51428e-05
-2.64071e-05
2.78882e-05
-1.70821e-05
2.97694e-05
-1.12621e-05
3.10887e-05
-7.60592e-06
3.20266e-05
-5.25616e-06
3.26994e-05
-3.69732e-06
3.31836e-05
-2.62644e-06
3.35307e-05
-1.86686e-06
3.37766e-05
-1.31536e-06
3.39474e-05
-9.10304e-07
3.40627e-05
-6.1343e-07
3.41379e-05
-3.9897e-07
3.41847e-05
-2.48169e-07
3.42122e-05
-1.45962e-07
3.42271e-05
-7.92525e-08
3.42354e-05
-4.34719e-08
3.42379e-05
-1.34143e-08
-1.19461e-08
1.98402e-05
-7.83619e-05
2.74757e-05
-4.84665e-05
3.15997e-05
-3.05311e-05
3.43919e-05
-1.98743e-05
3.64045e-05
-1.32747e-05
3.78708e-05
-9.07225e-06
3.89409e-05
-6.32624e-06
3.97219e-05
-4.47835e-06
4.02904e-05
-3.19494e-06
4.0701e-05
-2.27741e-06
4.09933e-05
-1.60764e-06
4.11969e-05
-1.11397e-06
4.13348e-05
-7.51302e-07
4.14247e-05
-4.88913e-07
4.14808e-05
-3.0423e-07
4.15138e-05
-1.78983e-07
4.15316e-05
-9.71291e-08
4.15416e-05
-5.34217e-08
4.15445e-05
-1.62901e-08
-1.48357e-08
3.1908e-05
3.71422e-05
4.01847e-05
4.26592e-05
4.46542e-05
4.62082e-05
4.73907e-05
4.82771e-05
4.89336e-05
4.9413e-05
4.97568e-05
4.99975e-05
5.0161e-05
5.02679e-05
5.03346e-05
5.03739e-05
5.03951e-05
5.0407e-05
5.04104e-05
)
;

boundaryField
{
    inlet
    {
        type            calculated;
        value           nonuniform List<scalar> 
20
(
-1.49145e-05
-1.92628e-05
-2.48788e-05
-3.21322e-05
-4.15004e-05
-5.35998e-05
-6.92268e-05
-8.94099e-05
-0.000115477
-0.000149145
-0.000447434
-0.000346432
-0.00026823
-0.00020768
-0.000160799
-0.000124501
-9.63967e-05
-7.46365e-05
-5.77883e-05
-4.47434e-05
)
;
    }
    outlet
    {
        type            calculated;
        value           nonuniform List<scalar> 
35
(
3.36091e-06
4.07815e-06
4.94845e-06
6.00449e-06
7.28589e-06
8.84075e-06
1.07274e-05
1.30167e-05
1.57946e-05
1.91653e-05
2.32553e-05
2.82182e-05
3.42402e-05
4.15473e-05
5.04139e-05
1.32568e-05
1.71218e-05
2.21136e-05
2.85608e-05
3.68877e-05
4.76423e-05
6.15324e-05
7.94722e-05
0.000102643
0.000132569
0.000397711
0.000307941
0.000238432
0.000184611
0.000142939
0.000110673
8.56902e-05
6.63469e-05
5.137e-05
3.97739e-05
)
;
    }
    frontAndBack
    {
        type            empty;
        value           nonuniform 0();
    }
    noslipwall
    {
        type            calculated;
        value           uniform 0;
    }
}


// ************************************************************************* //
