/*--------------------------------*- C++ -*----------------------------------*\
  =========                 |
  \\      /  F ield         | OpenFOAM: The Open Source CFD Toolbox
   \\    /   O peration     | Website:  https://openfoam.org
    \\  /    A nd           | Version:  7
     \\/     M anipulation  |
\*---------------------------------------------------------------------------*/
FoamFile
{
    version     2.0;
    format      ascii;
    class       volVectorField;
    location    "0";
    object      U3;
}
// * * * * * * * * * * * * * * * * * * * * * * * * * * * * * * * * * * * * * //

dimensions      [0 1 -1 0 0 0 0];

internalField   nonuniform List<vector> 
900
(
(44.58 7.82928e-09 0)
(44.58 -1.30287e-07 0)
(44.5812 -4.65439e-06 0)
(44.5947 -8.42593e-05 0)
(44.6788 -0.00074311 0)
(44.985 -0.00376863 0)
(45.768 -0.0135959 0)
(47.4398 -0.0430205 0)
(51.1078 -0.150506 0)
(63.3544 -0.886239 0)
(44.58 1.64932e-08 0)
(44.58 -4.13371e-07 0)
(44.5812 -1.53358e-05 0)
(44.5947 -0.000277285 0)
(44.6787 -0.00244549 0)
(44.9847 -0.012401 0)
(45.7668 -0.044726 0)
(47.433 -0.141371 0)
(51.0416 -0.491211 0)
(60.989 -2.65231 0)
(44.58 1.84096e-08 0)
(44.58 -7.63281e-07 0)
(44.5812 -2.91371e-05 0)
(44.5947 -0.000526339 0)
(44.6786 -0.00464178 0)
(44.9839 -0.0235326 0)
(45.7632 -0.0848097 0)
(47.4133 -0.267289 0)
(50.8735 -0.913766 0)
(58.4609 -4.32943 0)
(44.58 2.08916e-08 0)
(44.58 -1.21427e-06 0)
(44.5812 -4.69233e-05 0)
(44.5947 -0.000847271 0)
(44.6782 -0.00747093 0)
(44.9822 -0.0378556 0)
(45.7551 -0.136206 0)
(47.3708 -0.426629 0)
(50.5644 -1.41599 0)
(55.8759 -5.75521 0)
(44.58 2.41285e-08 0)
(44.58 -1.79422e-06 0)
(44.5811 -6.97922e-05 0)
(44.5946 -0.00125983 0)
(44.6776 -0.0111051 0)
(44.9788 -0.0562122 0)
(45.7392 -0.201609 0)
(47.2906 -0.624239 0)
(50.0809 -1.97695 0)
(53.3607 -6.76777 0)
(44.58 2.83853e-08 0)
(44.58 -2.53708e-06 0)
(44.5811 -9.90753e-05 0)
(44.5944 -0.00178789 0)
(44.6763 -0.0157501 0)
(44.9724 -0.0795726 0)
(45.7101 -0.283739 0)
(47.1531 -0.861305 0)
(49.4082 -2.54936 0)
(51.0391 -7.25277 0)
(44.58 3.40423e-08 0)
(44.58 -3.48194e-06 0)
(44.5811 -0.000136299 0)
(44.5941 -0.00245863 0)
(44.6741 -0.0216351 0)
(44.9609 -0.108934 0)
(45.6597 -0.384557 0)
(46.936 -1.13105 0)
(48.5633 -3.05884 0)
(49.0044 -7.18832 0)
(44.58 4.17257e-08 0)
(44.58 -4.66893e-06 0)
(44.5811 -0.00018301 0)
(44.5936 -0.00329922 0)
(44.6703 -0.028976 0)
(44.9413 -0.145047 0)
(45.5768 -0.503668 0)
(46.6203 -1.41352 0)
(47.601 -3.41706 0)
(47.3044 -6.65966 0)
(44.58 5.24928e-08 0)
(44.58 -6.1275e-06 0)
(44.581 -0.000240292 0)
(44.5927 -0.0043276 0)
(44.6638 -0.0378835 0)
(44.9086 -0.187803 0)
(45.4478 -0.635608 0)
(46.2001 -1.6724 0)
(46.6049 -3.55035 0)
(45.9461 -5.82542 0)
(44.58 6.82353e-08 0)
(44.58 -7.84878e-06 0)
(44.5809 -0.000307624 0)
(44.5912 -0.00553138 0)
(44.653 -0.0481593 0)
(44.8566 -0.235053 0)
(45.2601 -0.766194 0)
(45.6914 -1.85898 0)
(45.6678 -3.43357 0)
(44.914 -4.85133 0)
(44.58 2.39509e-07 0)
(44.58 -1.07847e-05 0)
(44.5806 -0.000412412 0)
(44.5871 -0.00737708 0)
(44.6231 -0.0629781 0)
(44.7196 -0.291331 0)
(44.8183 -0.852724 0)
(44.7163 -1.77338 0)
(44.2806 -2.77866 0)
(43.659 -3.47087 0)
(44.58 3.37703e-07 0)
(44.58 -1.26513e-05 0)
(44.58 -0.000479341 0)
(44.5796 -0.00851859 0)
(44.5741 -0.0711419 0)
(44.534 -0.310251 0)
(44.3774 -0.806741 0)
(44.0326 -1.42048 0)
(43.56 -1.9013 0)
(43.1068 -2.16101 0)
(44.58 2.32318e-07 0)
(44.58 -1.15665e-05 0)
(44.5795 -0.000443189 0)
(44.5739 -0.00783351 0)
(44.5393 -0.0644062 0)
(44.4162 -0.270136 0)
(44.1387 -0.654813 0)
(43.7207 -1.06046 0)
(43.2731 -1.33193 0)
(42.9002 -1.46632 0)
(44.58 1.62142e-07 0)
(44.58 -9.48081e-06 0)
(44.5792 -0.000365656 0)
(44.5703 -0.0064406 0)
(44.5174 -0.0524377 0)
(44.3463 -0.214806 0)
(44.0091 -0.500111 0)
(43.566 -0.775203 0)
(43.1399 -0.94545 0)
(42.8067 -1.0268 0)
(44.58 1.13447e-07 0)
(44.58 -7.24244e-06 0)
(44.5791 -0.000280979 0)
(44.5681 -0.00493834 0)
(44.5045 -0.0399752 0)
(44.3064 -0.161527 0)
(43.9385 -0.367607 0)
(43.4857 -0.556621 0)
(43.0731 -0.669 0)
(42.7603 -0.721841 0)
(44.58 7.82801e-08 0)
(44.58 -5.21933e-06 0)
(44.5789 -0.000204014 0)
(44.5668 -0.00358055 0)
(44.4971 -0.02889 0)
(44.2842 -0.115842 0)
(43.9003 -0.260347 0)
(43.4435 -0.389299 0)
(43.0386 -0.464384 0)
(42.7364 -0.499412 0)
(44.58 5.21019e-08 0)
(44.58 -3.52537e-06 0)
(44.5789 -0.000139438 0)
(44.5661 -0.00244447 0)
(44.4931 -0.0196894 0)
(44.2724 -0.0786239 0)
(43.8803 -0.175521 0)
(43.4216 -0.260735 0)
(43.0208 -0.309822 0)
(42.7242 -0.332631 0)
(44.58 3.22298e-08 0)
(44.58 -2.16078e-06 0)
(44.5789 -8.73822e-05 0)
(44.5658 -0.00152995 0)
(44.4911 -0.0123133 0)
(44.2665 -0.0490657 0)
(43.8703 -0.109165 0)
(43.4108 -0.161629 0)
(43.0121 -0.191688 0)
(42.7182 -0.205629 0)
(44.58 1.69624e-08 0)
(44.58 -1.08384e-06 0)
(44.5788 -4.62966e-05 0)
(44.5656 -0.000808606 0)
(44.4902 -0.00650658 0)
(44.2638 -0.0259016 0)
(43.8658 -0.0575388 0)
(43.4059 -0.0850638 0)
(43.0082 -0.100796 0)
(42.7155 -0.108086 0)
(44.58 5.15427e-09 0)
(44.58 -3.05432e-07 0)
(44.5788 -1.41269e-05 0)
(44.5656 -0.000245946 0)
(44.4899 -0.00197936 0)
(44.2629 -0.00787642 0)
(43.8643 -0.0174872 0)
(43.4043 -0.0258385 0)
(43.0069 -0.0306076 0)
(42.7146 -0.0328169 0)
(43.081 -3.78187 0)
(42.5211 -3.90008 0)
(41.8983 -3.83661 0)
(41.2721 -3.5787 0)
(40.7061 -3.16498 0)
(40.2474 -2.6625 0)
(39.9153 -2.13967 0)
(39.7034 -1.64909 0)
(39.5886 -1.22228 0)
(39.5416 -0.872229 0)
(39.5354 -0.598988 0)
(39.5491 -0.395028 0)
(39.5693 -0.249307 0)
(39.5883 -0.149866 0)
(39.6032 -0.0853311 0)
(39.6134 -0.0457395 0)
(39.6197 -0.0229125 0)
(39.6232 -0.0105543 0)
(39.6249 -0.00441352 0)
(39.6256 -0.000966518 0)
(42.7515 -2.2726 0)
(42.4255 -2.32274 0)
(42.0584 -2.31803 0)
(41.6653 -2.24342 0)
(41.2685 -2.09395 0)
(40.8929 -1.87745 0)
(40.5603 -1.61298 0)
(40.2847 -1.32585 0)
(40.0707 -1.04167 0)
(39.9143 -0.781477 0)
(39.8061 -0.559109 0)
(39.7348 -0.380754 0)
(39.6897 -0.246151 0)
(39.6622 -0.150539 0)
(39.646 -0.0867213 0)
(39.6366 -0.0468197 0)
(39.6315 -0.0235367 0)
(39.6288 -0.0108804 0)
(39.6274 -0.0044814 0)
(39.6269 -0.00108362 0)
(42.6258 -1.52373 0)
(42.3795 -1.55114 0)
(42.102 -1.55293 0)
(41.7987 -1.52033 0)
(41.4795 -1.44703 0)
(41.158 -1.33165 0)
(40.8497 -1.17918 0)
(40.5688 -1.00066 0)
(40.3258 -0.811057 0)
(40.1259 -0.626107 0)
(39.9694 -0.45917 0)
(39.8525 -0.319103 0)
(39.7692 -0.209574 0)
(39.7124 -0.129667 0)
(39.6756 -0.075303 0)
(39.653 -0.0408668 0)
(39.6399 -0.0206052 0)
(39.6328 -0.00954274 0)
(39.6293 -0.00391828 0)
(39.6279 -0.000970424 0)
(42.5682 -1.06155 0)
(42.3564 -1.0786 0)
(42.118 -1.0809 0)
(41.8552 -1.06303 0)
(41.5736 -1.02031 0)
(41.2819 -0.950285 0)
(40.9914 -0.854017 0)
(40.7144 -0.736736 0)
(40.4625 -0.607273 0)
(40.244 -0.476371 0)
(40.0639 -0.3544 0)
(39.9227 -0.24928 0)
(39.8176 -0.16529 0)
(39.7435 -0.103002 0)
(39.6942 -0.0601196 0)
(39.6633 -0.0327343 0)
(39.6452 -0.0165364 0)
(39.6353 -0.00766727 0)
(39.6305 -0.00314338 0)
(39.6285 -0.000788206 0)
(42.5394 -0.744428 0)
(42.3444 -0.755653 0)
(42.1249 -0.757546 0)
(41.8821 -0.746573 0)
(41.6197 -0.719461 0)
(41.344 -0.67408 0)
(41.0642 -0.610407 0)
(40.7912 -0.531181 0)
(40.5363 -0.441861 0)
(40.3094 -0.349718 0)
(40.1172 -0.262295 0)
(39.963 -0.185777 0)
(39.8458 -0.123869 0)
(39.7619 -0.0775153 0)
(39.7053 -0.0453783 0)
(39.6695 -0.0247564 0)
(39.6484 -0.0125207 0)
(39.6369 -0.00580926 0)
(39.6312 -0.00238027 0)
(39.6289 -0.000600177 0)
(42.5246 -0.514393 0)
(42.3381 -0.521888 0)
(42.1282 -0.523281 0)
(41.8957 -0.51623 0)
(41.6432 -0.49849 0)
(41.3761 -0.468476 0)
(41.1023 -0.42591 0)
(40.832 -0.37235 0)
(40.576 -0.311271 0)
(40.3449 -0.247565 0)
(40.1466 -0.186513 0)
(39.9854 -0.132613 0)
(39.8616 -0.0886982 0)
(39.7722 -0.0556372 0)
(39.7115 -0.0326255 0)
(39.673 -0.0178189 0)
(39.6502 -0.00901807 0)
(39.6378 -0.0041857 0)
(39.6316 -0.00171461 0)
(39.6291 -0.000433493 0)
(42.517 -0.342389 0)
(42.3348 -0.347288 0)
(42.1298 -0.348242 0)
(41.9025 -0.343725 0)
(41.6552 -0.332255 0)
(41.3926 -0.31274 0)
(41.122 -0.28491 0)
(40.8532 -0.249685 0)
(40.5969 -0.209272 0)
(40.3637 -0.166873 0)
(40.1622 -0.126023 0)
(39.9973 -0.0897899 0)
(39.8701 -0.0601568 0)
(39.7777 -0.0377825 0)
(39.7149 -0.0221758 0)
(39.6749 -0.012119 0)
(39.6512 -0.00613559 0)
(39.6382 -0.00284836 0)
(39.6318 -0.00116664 0)
(39.6292 -0.000295339 0)
(42.5132 -0.211594 0)
(42.3331 -0.214595 0)
(42.1306 -0.215192 0)
(41.9058 -0.212454 0)
(41.6611 -0.205469 0)
(41.4007 -0.193551 0)
(41.1318 -0.176508 0)
(40.8637 -0.154872 0)
(40.6072 -0.129976 0)
(40.3731 -0.103778 0)
(40.17 -0.0784683 0)
(40.0033 -0.0559666 0)
(39.8744 -0.0375282 0)
(39.7805 -0.0235855 0)
(39.7166 -0.0138495 0)
(39.6758 -0.00757104 0)
(39.6517 -0.00383377 0)
(39.6385 -0.00177993 0)
(39.6319 -0.000728955 0)
(39.6293 -0.000184645 0)
(42.5115 -0.111206 0)
(42.3324 -0.112776 0)
(42.1309 -0.113092 0)
(41.9073 -0.111666 0)
(41.6637 -0.108019 0)
(41.4043 -0.101789 0)
(41.1361 -0.0928691 0)
(40.8684 -0.0815307 0)
(40.6119 -0.0684649 0)
(40.3773 -0.0546979 0)
(40.1735 -0.0413809 0)
(40.006 -0.0295287 0)
(39.8763 -0.0198081 0)
(39.7818 -0.0124526 0)
(39.7173 -0.00731376 0)
(39.6763 -0.00399873 0)
(39.6519 -0.002025 0)
(39.6386 -0.000940154 0)
(39.6319 -0.000384977 0)
(39.6293 -9.75259e-05 0)
(42.511 -0.0337623 0)
(42.3322 -0.0342383 0)
(42.131 -0.0343343 0)
(41.9078 -0.0339028 0)
(41.6645 -0.0327983 0)
(41.4055 -0.0309106 0)
(41.1375 -0.0282066 0)
(40.8699 -0.0247678 0)
(40.6134 -0.0208031 0)
(40.3787 -0.0166236 0)
(40.1747 -0.0125789 0)
(40.007 -0.00897765 0)
(39.8769 -0.00602314 0)
(39.7822 -0.00378695 0)
(39.7176 -0.00222434 0)
(39.6764 -0.0012162 0)
(39.652 -0.000615905 0)
(39.6386 -0.000285932 0)
(39.632 -0.000117064 0)
(39.6293 -2.96512e-05 0)
(52.8607 -41.5009 0)
(32.087 -19.2284 0)
(32.0805 -10.8758 0)
(33.3651 -6.5213 0)
(34.7342 -4.00836 0)
(35.9343 -2.50707 0)
(36.908 -1.59101 0)
(37.6667 -1.02031 0)
(38.2434 -0.657158 0)
(38.6731 -0.421899 0)
(38.987 -0.267796 0)
(39.2111 -0.166684 0)
(39.3666 -0.100903 0)
(39.4708 -0.0589125 0)
(39.5379 -0.0329019 0)
(39.5788 -0.0174181 0)
(39.6023 -0.00876338 0)
(39.6151 -0.00393982 0)
(39.621 -0.00189973 0)
(39.6237 -0.00016364 0)
(51.982 -35.9398 0)
(34.0485 -18.9308 0)
(32.8695 -10.9778 0)
(33.7509 -6.66398 0)
(34.9373 -4.13167 0)
(36.0444 -2.60064 0)
(36.9688 -1.65793 0)
(37.701 -1.0666 0)
(38.2631 -0.688469 0)
(38.6846 -0.442644 0)
(38.9938 -0.281236 0)
(39.2151 -0.175168 0)
(39.3689 -0.106086 0)
(39.4721 -0.0619606 0)
(39.5386 -0.0346214 0)
(39.5792 -0.0183793 0)
(39.6025 -0.00930306 0)
(39.6152 -0.00408206 0)
(39.621 -0.00219018 0)
(39.6237 6.99872e-05 0)
(50.9549 -30.2374 0)
(36.0443 -18.2671 0)
(33.8384 -11.0121 0)
(34.2451 -6.80874 0)
(35.2025 -4.27287 0)
(36.19 -2.71288 0)
(37.0501 -1.74018 0)
(37.7472 -1.12435 0)
(38.2898 -0.727876 0)
(38.7003 -0.468903 0)
(39.003 -0.298312 0)
(39.2205 -0.185974 0)
(39.372 -0.112698 0)
(39.4739 -0.0658524 0)
(39.5396 -0.0368152 0)
(39.5797 -0.019592 0)
(39.6027 -0.00996498 0)
(39.6153 -0.0042854 0)
(39.6211 -0.00249664 0)
(39.6237 0.000289815 0)
(49.8009 -24.7089 0)
(37.9435 -17.1609 0)
(34.9814 -10.9194 0)
(34.8678 -6.93375 0)
(35.5466 -4.42571 0)
(36.3824 -2.84344 0)
(37.1589 -1.83932 0)
(37.8096 -1.19539 0)
(38.3261 -0.77697 0)
(38.7217 -0.50188 0)
(39.0157 -0.319869 0)
(39.228 -0.199654 0)
(39.3764 -0.121088 0)
(39.4764 -0.0707931 0)
(39.5409 -0.0395882 0)
(39.5804 -0.0210604 0)
(39.6031 -0.0106786 0)
(39.6155 -0.00464199 0)
(39.6212 -0.0025893 0)
(39.6238 0.000206747 0)
(48.5691 -19.6782 0)
(39.6042 -15.5997 0)
(36.2584 -10.6278 0)
(35.6311 -7.00289 0)
(35.9872 -4.57613 0)
(36.6354 -2.98832 0)
(37.3047 -1.95537 0)
(37.8944 -1.28106 0)
(38.376 -0.837251 0)
(38.7512 -0.542832 0)
(39.0332 -0.346837 0)
(39.2383 -0.21685 0)
(39.3824 -0.131669 0)
(39.4798 -0.0770378 0)
(39.5428 -0.0430981 0)
(39.5814 -0.0229204 0)
(39.6036 -0.0115845 0)
(39.6157 -0.00509177 0)
(39.6213 -0.00270992 0)
(39.6238 0.000104723 0)
(47.3355 -15.3924 0)
(40.9097 -13.6657 0)
(37.5879 -10.0715 0)
(36.529 -6.9653 0)
(36.5389 -4.69869 0)
(36.9645 -3.13713 0)
(37.4994 -2.08524 0)
(38.0097 -1.38129 0)
(38.4446 -0.909645 0)
(38.7922 -0.592823 0)
(39.0578 -0.380105 0)
(39.2529 -0.238213 0)
(39.3909 -0.144874 0)
(39.4846 -0.084856 0)
(39.5454 -0.0475011 0)
(39.5828 -0.0252565 0)
(39.6043 -0.0127252 0)
(39.616 -0.00565401 0)
(39.6215 -0.00286622 0)
(39.6239 -1.87505e-05 0)
(46.1877 -11.9481 0)
(41.8072 -11.5321 0)
(38.8559 -9.22131 0)
(37.5246 -6.7629 0)
(37.2049 -4.75472 0)
(37.3835 -3.26995 0)
(37.7563 -2.22027 0)
(38.1658 -1.4931 0)
(38.5393 -0.993652 0)
(38.8496 -0.652247 0)
(39.0923 -0.420266 0)
(39.2735 -0.264268 0)
(39.403 -0.161091 0)
(39.4915 -0.094501 0)
(39.5492 -0.052949 0)
(39.5848 -0.0281524 0)
(39.6053 -0.0141437 0)
(39.6165 -0.00634747 0)
(39.6217 -0.00306675 0)
(39.624 -0.00016534 0)
(45.1995 -9.27821 0)
(42.3253 -9.40903 0)
(39.9468 -8.11156 0)
(38.5458 -6.34948 0)
(37.9662 -4.69599 0)
(37.8982 -3.35528 0)
(38.0883 -2.34344 0)
(38.375 -1.60837 0)
(38.6695 -1.08586 0)
(38.9299 -0.719932 0)
(39.1413 -0.467095 0)
(39.3029 -0.295122 0)
(39.4203 -0.180496 0)
(39.5014 -0.106122 0)
(39.5547 -0.059543 0)
(39.5877 -0.0316671 0)
(39.6067 -0.0158719 0)
(39.6171 -0.00718519 0)
(39.622 -0.0033192 0)
(39.6242 -0.000334952 0)
(44.4072 -7.21242 0)
(42.5551 -7.465 0)
(40.7837 -6.83954 0)
(39.4969 -5.71601 0)
(38.7736 -4.47817 0)
(38.497 -3.35264 0)
(38.5014 -2.42747 0)
(38.6484 -1.71116 0)
(38.8457 -1.17775 0)
(39.0412 -0.791607 0)
(39.2104 -0.518582 0)
(39.345 -0.32989 0)
(39.4453 -0.202724 0)
(39.5158 -0.119582 0)
(39.5626 -0.0672342 0)
(39.5918 -0.035785 0)
(39.6088 -0.017906 0)
(39.6181 -0.00816328 0)
(39.6225 -0.00362603 0)
(39.6244 -0.000524276 0)
(43.8092 -5.56255 0)
(42.6048 -5.77171 0)
(41.3488 -5.52589 0)
(40.2866 -4.90508 0)
(39.5507 -4.08313 0)
(39.1429 -3.22403 0)
(38.9878 -2.43723 0)
(38.992 -1.77601 0)
(39.0779 -1.25301 0)
(39.193 -0.857638 0)
(39.3069 -0.569332 0)
(39.4046 -0.365663 0)
(39.4811 -0.226251 0)
(39.5366 -0.134096 0)
(39.5742 -0.075629 0)
(39.598 -0.0403131 0)
(39.6119 -0.020156 0)
(39.6195 -0.00923828 0)
(39.6232 -0.00397469 0)
(39.6247 -0.000721965 0)
(5.61808 -0.191046 0)
(15.8813 -0.141586 0)
(23.7552 -0.0882113 0)
(29.0834 -0.0514117 0)
(32.5409 -0.0298075 0)
(34.7962 -0.0176552 0)
(36.303 -0.0107459 0)
(37.3356 -0.00669101 0)
(38.0571 -0.00422435 0)
(38.566 -0.00267632 0)
(38.9247 -0.00168399 0)
(39.1748 -0.00104207 0)
(39.3457 -0.000628398 0)
(39.459 -0.00036593 0)
(39.5314 -0.000203837 0)
(39.5754 -0.000107392 0)
(39.6006 -5.23364e-05 0)
(39.6143 -2.55525e-05 0)
(39.6207 -7.2901e-06 0)
(39.6235 -5.53883e-06 0)
(5.61984 -0.613983 0)
(15.8848 -0.45497 0)
(23.758 -0.283437 0)
(29.085 -0.165192 0)
(32.5417 -0.0957764 0)
(34.7967 -0.0567301 0)
(36.3032 -0.0345294 0)
(37.3358 -0.0215003 0)
(38.0572 -0.0135743 0)
(38.5661 -0.00859999 0)
(38.9247 -0.00541128 0)
(39.1748 -0.00334856 0)
(39.3457 -0.00201929 0)
(39.459 -0.00117589 0)
(39.5314 -0.00065506 0)
(39.5754 -0.000345136 0)
(39.6006 -0.000168174 0)
(39.6143 -8.2171e-05 0)
(39.6207 -2.33609e-05 0)
(39.6235 -1.77988e-05 0)
(5.62457 -1.12749 0)
(15.8941 -0.835224 0)
(23.7654 -0.520234 0)
(29.0893 -0.303191 0)
(32.5439 -0.175792 0)
(34.7978 -0.10413 0)
(36.3038 -0.0633824 0)
(37.3361 -0.0394673 0)
(38.0574 -0.0249182 0)
(38.5662 -0.0157872 0)
(38.9248 -0.00993368 0)
(39.1748 -0.00614712 0)
(39.3457 -0.00370692 0)
(39.459 -0.00215866 0)
(39.5314 -0.0012026 0)
(39.5755 -0.000633646 0)
(39.6006 -0.000308721 0)
(39.6143 -0.000150931 0)
(39.6207 -4.27944e-05 0)
(39.6235 -3.26761e-05 0)
(5.63414 -1.75139 0)
(15.9129 -1.2966 0)
(23.7803 -0.807322 0)
(29.098 -0.470473 0)
(32.5484 -0.272802 0)
(34.8001 -0.161609 0)
(36.305 -0.0983767 0)
(37.3367 -0.0612612 0)
(38.0577 -0.0386796 0)
(38.5664 -0.0245065 0)
(38.9249 -0.0154203 0)
(39.1749 -0.00954245 0)
(39.3457 -0.00575447 0)
(39.459 -0.00335105 0)
(39.5314 -0.00186694 0)
(39.5755 -0.000983694 0)
(39.6006 -0.000479246 0)
(39.6143 -0.000234361 0)
(39.6207 -6.63689e-05 0)
(39.6235 -5.0731e-05 0)
(5.65144 -2.5103 0)
(15.9468 -1.85638 0)
(23.8073 -1.15513 0)
(29.1137 -0.673078 0)
(32.5566 -0.390329 0)
(34.8042 -0.23127 0)
(36.3071 -0.140802 0)
(37.3378 -0.0876895 0)
(38.0583 -0.05537 0)
(38.5667 -0.0350827 0)
(38.9251 -0.0220759 0)
(39.175 -0.0136614 0)
(39.3458 -0.00823844 0)
(39.4591 -0.00479761 0)
(39.5314 -0.00267289 0)
(39.5755 -0.00140837 0)
(39.6006 -0.000686122 0)
(39.6143 -0.000335584 0)
(39.6207 -9.49602e-05 0)
(39.6235 -7.2645e-05 0)
(5.68089 -3.43508 0)
(16.0046 -2.53548 0)
(23.8529 -1.57599 0)
(29.1403 -0.918129 0)
(32.5703 -0.532547 0)
(34.8111 -0.315625 0)
(36.3107 -0.192205 0)
(37.3397 -0.119723 0)
(38.0594 -0.0756059 0)
(38.5673 -0.0479079 0)
(38.9255 -0.0301478 0)
(39.1752 -0.0186571 0)
(39.3459 -0.0112514 0)
(39.4592 -0.00655228 0)
(39.5315 -0.00365053 0)
(39.5755 -0.00192352 0)
(39.6006 -0.000937064 0)
(39.6143 -0.000458389 0)
(39.6207 -0.000129623 0)
(39.6235 -9.92484e-05 0)
(5.72934 -4.5651 0)
(16.0992 -3.3592 0)
(23.9275 -2.08434 0)
(29.1835 -1.21389 0)
(32.5927 -0.704336 0)
(34.8225 -0.417633 0)
(36.3165 -0.254423 0)
(37.3429 -0.158523 0)
(38.0611 -0.100127 0)
(38.5683 -0.0634541 0)
(38.926 -0.0399341 0)
(39.1756 -0.0247148 0)
(39.3461 -0.0149051 0)
(39.4593 -0.00868022 0)
(39.5315 -0.0048362 0)
(39.5755 -0.0025483 0)
(39.6006 -0.00124139 0)
(39.6143 -0.000607359 0)
(39.6207 -0.000171624 0)
(39.6235 -0.000131555 0)
(5.80748 -5.95182 0)
(16.251 -4.35795 0)
(24.0462 -2.69659 0)
(29.2521 -1.56969 0)
(32.6282 -0.911276 0)
(34.8405 -0.540735 0)
(36.3258 -0.329622 0)
(37.3478 -0.205468 0)
(38.0638 -0.129818 0)
(38.5698 -0.0822867 0)
(38.9269 -0.0517929 0)
(39.1761 -0.0320568 0)
(39.3464 -0.019334 0)
(39.4594 -0.01126 0)
(39.5316 -0.00627368 0)
(39.5756 -0.00330581 0)
(39.6007 -0.00161034 0)
(39.6143 -0.000788037 0)
(39.6207 -0.000222471 0)
(39.6235 -0.000170805 0)
(5.93228 -7.66472 0)
(16.4916 -5.56803 0)
(24.2321 -3.43059 0)
(29.3589 -1.99554 0)
(32.6834 -1.15951 0)
(34.8684 -0.688827 0)
(36.3402 -0.420301 0)
(37.3555 -0.262175 0)
(38.0681 -0.165725 0)
(38.5723 -0.105079 0)
(38.9283 -0.0661522 0)
(39.1769 -0.0409499 0)
(39.3469 -0.0246998 0)
(39.4597 -0.0143858 0)
(39.5318 -0.00801564 0)
(39.5756 -0.00422383 0)
(39.6007 -0.00205742 0)
(39.6143 -0.00100712 0)
(39.6207 -0.000283948 0)
(39.6235 -0.000218527 0)
(6.1314 -9.80172 0)
(16.8706 -7.03171 0)
(24.5196 -4.30413 0)
(29.5227 -2.50122 0)
(32.7679 -1.45536 0)
(34.9113 -0.866133 0)
(36.3624 -0.529273 0)
(37.3674 -0.330502 0)
(38.0746 -0.209067 0)
(38.576 -0.132623 0)
(38.9305 -0.0835191 0)
(39.1781 -0.0517111 0)
(39.3476 -0.031195 0)
(39.4601 -0.0181704 0)
(39.532 -0.010125 0)
(39.5758 -0.00533561 0)
(39.6008 -0.00259874 0)
(39.6144 -0.00127266 0)
(39.6207 -0.000358127 0)
(39.6235 -0.000276613 0)
(6.45175 -12.5088 0)
(17.4687 -8.79541 0)
(24.9605 -5.3312 0)
(29.7706 -3.09432 0)
(32.8954 -1.8045 0)
(34.976 -1.07689 0)
(36.3959 -0.659553 0)
(37.3854 -0.412524 0)
(38.0846 -0.261239 0)
(38.5816 -0.16584 0)
(38.9337 -0.104487 0)
(39.18 -0.0647136 0)
(39.3487 -0.039047 0)
(39.4607 -0.0227473 0)
(39.5323 -0.0126766 0)
(39.5759 -0.00668065 0)
(39.6008 -0.00325343 0)
(39.6144 -0.00159432 0)
(39.6207 -0.000447357 0)
(39.6235 -0.000347428 0)
(6.97715 -16.0189 0)
(18.4214 -10.9014 0)
(25.6323 -6.51381 0)
(30.1409 -3.77633 0)
(33.085 -2.21033 0)
(35.0725 -1.32468 0)
(36.4462 -0.814099 0)
(37.4124 -0.510433 0)
(38.0996 -0.323777 0)
(38.5902 -0.205766 0)
(38.9387 -0.129736 0)
(39.1829 -0.0803895 0)
(39.3503 -0.048521 0)
(39.4616 -0.0282724 0)
(39.5328 -0.0157579 0)
(39.5762 -0.00830536 0)
(39.601 -0.00404387 0)
(39.6145 -0.00198364 0)
(39.6207 -0.00055419 0)
(39.6235 -0.000433978 0)
(7.86823 -20.7368 0)
(19.9687 -13.3588 0)
(26.6488 -7.82453 0)
(30.6854 -4.53553 0)
(33.3625 -2.67104 0)
(35.2144 -1.61123 0)
(36.5205 -0.9953 0)
(37.4525 -0.626327 0)
(38.122 -0.398276 0)
(38.603 -0.253525 0)
(38.9461 -0.16002 0)
(39.1872 -0.0992257 0)
(39.3528 -0.0599187 0)
(39.463 -0.0349248 0)
(39.5336 -0.0194698 0)
(39.5766 -0.0102633 0)
(39.6012 -0.00499571 0)
(39.6146 -0.00245424 0)
(39.6208 -0.000681176 0)
(39.6236 -0.000540145 0)
(9.46112 -27.4399 0)
(22.5633 -16.045 0)
(28.171 -9.17006 0)
(31.4691 -5.33493 0)
(33.7603 -3.17486 0)
(35.4193 -1.9343 0)
(36.6288 -1.20405 0)
(37.5116 -0.761793 0)
(38.1551 -0.486193 0)
(38.622 -0.310241 0)
(38.9571 -0.196132 0)
(39.1936 -0.121747 0)
(39.3565 -0.0735709 0)
(39.4651 -0.0429026 0)
(39.5347 -0.0239249 0)
(39.5772 -0.0126147 0)
(39.6015 -0.00613744 0)
(39.6147 -0.00302203 0)
(39.6208 -0.000830412 0)
(39.6236 -0.000671091 0)
(12.5397 -37.8134 0)
(27.1365 -18.3574 0)
(30.3892 -10.3242 0)
(32.5574 -6.09521 0)
(34.3139 -3.69343 0)
(35.7086 -2.2846 0)
(36.7841 -1.43821 0)
(37.5971 -0.917171 0)
(38.2035 -0.588503 0)
(38.6499 -0.37687 0)
(38.9734 -0.238817 0)
(39.2031 -0.148479 0)
(39.362 -0.0898173 0)
(39.4682 -0.0524137 0)
(39.5364 -0.0292539 0)
(39.5781 -0.0154599 0)
(39.6019 -0.00766564 0)
(39.6149 -0.00358797 0)
(39.6209 -0.00139316 0)
(39.6236 -0.0004419 0)
)
;

boundaryField
{
    inlet
    {
        type            fixedValue;
        value           uniform (44.58 0 0);
    }
    outlet
    {
        type            zeroGradient;
    }
    frontAndBack
    {
        type            empty;
    }
    noslipwall
    {
        type            noSlip;
    }
}


// ************************************************************************* //
