/*--------------------------------*- C++ -*----------------------------------*\
  =========                 |
  \\      /  F ield         | OpenFOAM: The Open Source CFD Toolbox
   \\    /   O peration     | Website:  https://openfoam.org
    \\  /    A nd           | Version:  7
     \\/     M anipulation  |
\*---------------------------------------------------------------------------*/
FoamFile
{
    version     2.0;
    format      ascii;
    class       volScalarField;
    location    "486";
    object      nuef;
}
// * * * * * * * * * * * * * * * * * * * * * * * * * * * * * * * * * * * * * //

dimensions      [0 2 -1 0 0 0 0];

internalField   nonuniform List<scalar> 
900
(
0.000418903
0.000392595
0.000387221
0.000384832
0.000384356
0.000384923
0.000388266
0.00039314
0.000398555
0.00039094
0.000434955
0.000568376
0.000590609
0.000597898
0.000602544
0.000605144
0.000608535
0.000608471
0.000621227
0.000595115
0.000475912
0.0008314
0.000935522
0.000978323
0.000997751
0.00101108
0.00101991
0.00102468
0.00103464
0.00102721
0.000423177
0.000967304
0.00118107
0.0012756
0.00132279
0.00135215
0.00136884
0.0013815
0.00139224
0.00139404
0.000278403
0.000944348
0.00129017
0.00145966
0.00154808
0.00159933
0.00162887
0.00164858
0.00166309
0.00167045
3.9608e-05
0.000713699
0.00118991
0.00145652
0.00160157
0.00168499
0.00173237
0.00176151
0.00177803
0.00178781
1.5e-05
0.00030106
0.00079188
0.00115825
0.00137825
0.00150448
0.0015753
0.0016142
0.00163094
0.00163747
1.61771e-05
1.73356e-05
0.000194512
0.00046785
0.000703605
0.000871522
0.000974324
0.00103087
0.00105372
0.00105994
1.75486e-05
1.63619e-05
1.63873e-05
2.41602e-05
6.05203e-05
0.000114868
0.000156562
0.000182941
0.000194872
0.000200312
1.77129e-05
1.72351e-05
1.68377e-05
1.66644e-05
1.6568e-05
1.65499e-05
1.65999e-05
1.66638e-05
1.653e-05
1.64498e-05
1.75657e-05
1.71778e-05
1.71095e-05
1.7188e-05
1.711e-05
1.72035e-05
1.71809e-05
1.7058e-05
1.70952e-05
1.72127e-05
1.74843e-05
1.7265e-05
1.71835e-05
1.7085e-05
1.70238e-05
1.71634e-05
1.71479e-05
1.71655e-05
1.71446e-05
1.71765e-05
1.74403e-05
1.7268e-05
1.72048e-05
1.72087e-05
1.72269e-05
1.70009e-05
1.69895e-05
1.68656e-05
1.6841e-05
1.66683e-05
1.77258e-05
1.72528e-05
1.68502e-05
1.65511e-05
1.62763e-05
1.6183e-05
1.60493e-05
1.59052e-05
1.58088e-05
1.57649e-05
1.73905e-05
1.61521e-05
1.69203e-05
2.40138e-05
5.03709e-05
9.17554e-05
0.000134817
0.000170527
0.000199013
0.000219627
1.53082e-05
6.30188e-05
0.000324429
0.000581774
0.000791114
0.000944725
0.00105508
0.00113131
0.00118443
0.00122
5.87461e-05
0.000670815
0.0011676
0.00147368
0.00165082
0.00175562
0.00182148
0.00186346
0.00189158
0.00190945
0.000530279
0.00125206
0.00155539
0.00170148
0.00178565
0.00183515
0.00186604
0.00188478
0.00189658
0.0019047
0.000966924
0.00133735
0.00139186
0.00142029
0.00143886
0.00145092
0.00145771
0.00146113
0.00146438
0.00146514
0.00141479
0.00138248
0.00133159
0.00131209
0.00130059
0.00129319
0.00128548
0.0012791
0.00127201
0.00126684
1.70886e-05
1.71549e-05
1.70984e-05
1.71987e-05
1.70564e-05
1.71292e-05
1.72649e-05
1.73123e-05
1.73151e-05
1.7302e-05
1.73971e-05
1.74565e-05
1.73835e-05
1.74829e-05
1.76179e-05
1.76152e-05
1.7533e-05
1.75558e-05
1.75811e-05
1.76265e-05
1.71829e-05
1.71276e-05
1.71411e-05
1.7107e-05
1.71309e-05
1.71983e-05
1.71587e-05
1.70793e-05
1.69841e-05
1.69514e-05
1.68557e-05
1.67034e-05
1.65759e-05
1.64849e-05
1.63503e-05
1.62614e-05
1.61105e-05
1.60111e-05
1.60093e-05
1.5932e-05
1.66176e-05
1.66902e-05
1.65486e-05
1.64364e-05
1.62976e-05
1.60912e-05
1.59736e-05
1.57795e-05
1.55802e-05
1.54149e-05
1.52726e-05
1.51987e-05
1.51007e-05
1.50646e-05
1.50387e-05
1.50226e-05
1.5016e-05
1.50125e-05
1.50101e-05
1.50108e-05
1.57538e-05
1.57987e-05
1.57604e-05
1.58007e-05
1.5796e-05
1.58333e-05
1.59897e-05
1.62426e-05
1.68084e-05
1.80119e-05
2.02134e-05
2.46401e-05
3.24403e-05
4.46917e-05
6.10649e-05
8.20083e-05
0.000106251
0.000138348
0.000164208
0.000237529
0.000234253
0.000247069
0.000263256
0.000282395
0.000304355
0.00033016
0.000361306
0.000397785
0.000440886
0.000490615
0.000546705
0.00060802
0.000675658
0.000747344
0.000825176
0.000908651
0.000997568
0.00110146
0.00119556
0.00140646
0.00124457
0.00126612
0.00129048
0.00131838
0.00134938
0.00138639
0.00142727
0.00147378
0.00152437
0.00158156
0.00164445
0.00170969
0.00177936
0.00185219
0.00192822
0.00200886
0.00209329
0.00218405
0.00226693
0.00242345
0.00192195
0.00193215
0.00194534
0.00195893
0.00197365
0.00199061
0.00201017
0.00203201
0.00205734
0.00208429
0.00211597
0.0021516
0.00219009
0.00223388
0.0022834
0.00233597
0.00239237
0.00245227
0.00250534
0.00259731
0.00190919
0.00191262
0.00191668
0.00192238
0.00192728
0.00193373
0.00194094
0.0019492
0.00195798
0.00196957
0.00198427
0.00200094
0.00202175
0.00204694
0.00207372
0.00210297
0.0021338
0.00216217
0.00218958
0.00222815
0.001467
0.00146665
0.00146708
0.00146731
0.00146867
0.00146788
0.00146911
0.00146935
0.00146887
0.00146923
0.00146931
0.00146943
0.00146951
0.0014698
0.00147147
0.00147132
0.00147237
0.00147284
0.00147392
0.00147524
0.0012625
0.00125891
0.00125437
0.00124934
0.00124262
0.00123412
0.00122504
0.00121326
0.00120163
0.00118675
0.00117156
0.00115619
0.00114196
0.00113023
0.00112075
0.00111398
0.00111015
0.00110693
0.00110698
0.00110731
0.000611253
0.00103916
0.00168062
0.00235401
0.00293078
0.00333567
0.00357029
0.00368613
0.00376034
0.00384351
0.003955
0.00408535
0.00421704
0.00433256
0.00442271
0.00448371
0.00452413
0.00453516
0.00457205
0.00437956
0.000740016
0.000952056
0.00134607
0.00188068
0.00240539
0.00280267
0.00305187
0.0031954
0.0032992
0.00341351
0.0035595
0.00373338
0.00391464
0.004082
0.00422311
0.00433015
0.00441123
0.00445742
0.00452365
0.0043494
0.00109723
0.00118601
0.00134038
0.00160366
0.00194659
0.00226809
0.00250354
0.00265378
0.00276558
0.00288525
0.00304241
0.0032487
0.00347886
0.00370769
0.00391201
0.00408176
0.00421797
0.00431455
0.00441983
0.00430406
0.00143059
0.00147816
0.00154639
0.00165267
0.00180025
0.00196649
0.00210792
0.00220493
0.00226856
0.00233439
0.00244512
0.00262719
0.00287448
0.00315648
0.00343455
0.00368311
0.00389414
0.0040608
0.00421877
0.0042115
0.00168862
0.00171269
0.00174664
0.00179174
0.00184627
0.00189934
0.00193173
0.00193351
0.00190705
0.00187617
0.00187927
0.00195255
0.00212498
0.00239544
0.00272189
0.00305513
0.00336053
0.00362162
0.00385292
0.00400952
0.00179615
0.00180552
0.0018165
0.00182639
0.00182829
0.00181213
0.00176697
0.00169
0.00158877
0.0014845
0.00139904
0.00135789
0.00138596
0.00151708
0.00176873
0.00212026
0.00250932
0.00288491
0.00321426
0.00356821
0.00163895
0.00163681
0.00162768
0.00160792
0.00156795
0.00150055
0.00140122
0.00127432
0.00113695
0.00100703
0.000898212
0.000817977
0.000773068
0.000772551
0.000838945
0.00100739
0.00130041
0.00171409
0.00214048
0.00273579
0.00105776
0.0010485
0.00103083
0.000998753
0.000944215
0.000865715
0.000764735
0.000652598
0.000542196
0.000444351
0.000365591
0.000305772
0.000264944
0.000239819
0.000232465
0.000248518
0.000301888
0.000445565
0.00063176
0.00127428
0.000200597
0.000198252
0.000192029
0.000180855
0.000161509
0.000133461
9.74233e-05
6.06534e-05
3.40423e-05
2.11447e-05
1.66749e-05
1.54953e-05
1.51763e-05
1.50821e-05
1.50475e-05
1.50388e-05
1.50422e-05
1.51823e-05
1.50494e-05
8.70865e-05
1.63801e-05
1.63832e-05
1.62034e-05
1.60728e-05
1.58788e-05
1.56351e-05
1.55276e-05
1.54262e-05
1.53946e-05
1.54019e-05
1.53908e-05
1.54704e-05
1.55364e-05
1.56498e-05
1.57181e-05
1.5839e-05
1.58773e-05
1.59162e-05
1.5864e-05
1.59158e-05
1.53036e-05
1.50121e-05
1.51513e-05
1.53677e-05
1.55247e-05
1.55584e-05
1.5411e-05
1.52336e-05
1.51297e-05
1.50847e-05
1.50824e-05
1.51567e-05
1.52819e-05
1.54292e-05
1.55648e-05
1.56309e-05
1.57694e-05
1.58621e-05
1.59525e-05
1.61102e-05
0.000103763
2.09502e-05
4.97171e-05
5.50832e-05
5.17281e-05
6.0516e-05
6.81335e-05
6.72477e-05
6.18833e-05
5.52174e-05
4.75534e-05
4.64048e-05
6.73293e-05
8.20385e-05
9.32355e-05
0.00010323
0.000110264
0.000115788
0.000118949
0.000124458
0.000158725
9.7428e-05
0.000137994
0.000169748
0.000208406
0.000237142
0.000252841
0.000252584
0.000240919
0.00022326
0.000202029
0.000189174
0.000198767
0.000212527
0.000224491
0.000234328
0.000240674
0.000247112
0.000250585
0.000256392
0.000201582
0.000177376
0.000253722
0.000357801
0.000420197
0.000466101
0.000489018
0.000487179
0.000466358
0.000434339
0.000399694
0.000369671
0.000359191
0.000367116
0.000377046
0.000385882
0.000392487
0.000397767
0.000401973
0.000406686
0.000238248
0.000264943
0.000446568
0.000608563
0.000701897
0.000773753
0.000807177
0.00080314
0.000768334
0.000715875
0.000661003
0.00060942
0.000578432
0.000571776
0.000574129
0.000577477
0.000580716
0.000583666
0.000585519
0.000587672
0.00027203
0.000367533
0.000723364
0.000951102
0.0010865
0.00119173
0.00124045
0.00123013
0.00117569
0.00109571
0.00101206
0.00093324
0.00087758
0.000849053
0.000834438
0.000826276
0.000821173
0.000816895
0.000814611
0.000809587
0.000312193
0.000535092
0.0011091
0.00141459
0.00160541
0.00175348
0.00181948
0.00180023
0.00171851
0.00160199
0.00148042
0.00136831
0.00127902
0.00121839
0.00117879
0.00115022
0.00112963
0.00111202
0.00110106
0.00108311
0.000361596
0.000775131
0.00156251
0.0019811
0.00227519
0.00248606
0.00257594
0.00254408
0.00242883
0.00226539
0.00209546
0.00193536
0.00180254
0.00169987
0.0016234
0.0015635
0.0015189
0.00147819
0.00145549
0.0014149
0.000418091
0.00110407
0.00203585
0.00259675
0.0030258
0.00333501
0.00347884
0.00345176
0.00330451
0.0030895
0.0028601
0.00264068
0.00245102
0.00229387
0.0021711
0.00206991
0.00199318
0.00192285
0.00188071
0.00181185
0.000461011
0.00144825
0.00250251
0.00320746
0.00377356
0.00418298
0.00438727
0.00437996
0.00421856
0.00396798
0.00369063
0.00342009
0.00317708
0.0029683
0.00279529
0.00265208
0.00253899
0.00243596
0.00237192
0.00226663
0.000502503
0.00176929
0.00292727
0.00376427
0.00444905
0.00494197
0.00519339
0.00520317
0.00503977
0.00477359
0.00447192
0.00417268
0.00389741
0.00365299
0.00344479
0.00326734
0.00312316
0.00299117
0.00290708
0.00276455
0.000526402
0.00203242
0.00325821
0.0041984
0.00497629
0.00552227
0.00580112
0.00582169
0.00566279
0.00540426
0.00510822
0.00480988
0.00453128
0.00427739
0.0040575
0.00386243
0.00370135
0.0035503
0.00345349
0.00328101
0.000530743
0.0021749
0.00342122
0.00441888
0.00523663
0.0057937
0.00606752
0.00609073
0.00595161
0.00573046
0.00548012
0.00522753
0.00498627
0.00476143
0.00455793
0.00437345
0.00421533
0.00406317
0.0039675
0.0037748
0.00051095
0.00216196
0.00331778
0.00427561
0.00504284
0.00554694
0.00578212
0.00580451
0.00571006
0.00557082
0.0054224
0.0052755
0.00512958
0.00498511
0.00484578
0.00470948
0.00458685
0.0044618
0.00438734
0.00418981
0.000979635
0.00180215
0.00268867
0.0034638
0.00407849
0.00448459
0.00468175
0.00473448
0.00472976
0.00472471
0.0047385
0.00476358
0.00478135
0.00478561
0.00477156
0.00473911
0.00469873
0.00464054
0.00462082
0.00443489
)
;

boundaryField
{
    inlet
    {
        type            fixedValue;
        value           uniform 2.0198e-05;
    }
    outlet
    {
        type            zeroGradient;
    }
    frontAndBack
    {
        type            empty;
    }
    noslipwall
    {
        type            calculated;
        value           nonuniform List<scalar> 
75
(
9.99761e-05
9.24329e-05
9.01433e-05
8.88754e-05
8.81074e-05
8.75483e-05
8.69924e-05
8.64271e-05
8.59268e-05
8.55358e-05
8.52505e-05
8.49896e-05
8.46811e-05
8.43123e-05
8.38729e-05
8.33499e-05
8.27373e-05
8.20291e-05
8.12342e-05
8.03709e-05
7.94813e-05
7.86139e-05
7.78344e-05
7.71801e-05
7.67005e-05
7.63696e-05
7.62115e-05
7.6143e-05
7.61725e-05
7.62519e-05
4.05917e-05
3.71101e-05
3.66564e-05
3.64062e-05
3.63234e-05
3.63372e-05
3.65425e-05
3.68271e-05
3.71342e-05
3.78484e-05
1.50128e-05
1.50166e-05
1.50915e-05
1.53856e-05
1.55702e-05
1.56511e-05
1.55393e-05
1.53027e-05
1.50966e-05
1.50009e-05
1.50512e-05
1.51385e-05
1.52757e-05
1.5409e-05
1.55272e-05
1.56343e-05
1.57175e-05
1.57968e-05
1.58415e-05
1.5928e-05
0.00044148
1.86997e-05
1.72151e-05
1.55072e-05
1.58553e-05
1.86927e-05
2.22246e-05
2.5596e-05
2.86169e-05
3.14242e-05
3.36953e-05
3.63248e-05
3.62923e-05
3.78101e-05
5.18391e-05
)
;
    }
}


// ************************************************************************* //
