/*--------------------------------*- C++ -*----------------------------------*\
  =========                 |
  \\      /  F ield         | OpenFOAM: The Open Source CFD Toolbox
   \\    /   O peration     | Website:  https://openfoam.org
    \\  /    A nd           | Version:  7
     \\/     M anipulation  |
\*---------------------------------------------------------------------------*/
FoamFile
{
    version     2.0;
    format      ascii;
    class       volScalarField;
    location    "486";
    object      nuef4;
}
// * * * * * * * * * * * * * * * * * * * * * * * * * * * * * * * * * * * * * //

dimensions      [0 2 -1 0 0 0 0];

internalField   nonuniform List<scalar> 
900
(
0.000546084
0.0005141
0.0005076
0.000504297
0.000502961
0.000503288
0.000506424
0.000509357
0.000518157
0.000508062
0.000560187
0.000731792
0.000761621
0.000772217
0.000776054
0.000779169
0.000782543
0.000782684
0.000795745
0.000764233
0.000612098
0.001069
0.00120339
0.00125622
0.00128401
0.00129982
0.00130921
0.00131721
0.00132865
0.00131764
0.000547014
0.00124425
0.00151874
0.00163947
0.00170097
0.00173698
0.00175821
0.00177345
0.0017887
0.0017886
0.000365529
0.00121261
0.0016577
0.00187572
0.00198847
0.00205496
0.00209331
0.00211854
0.00213705
0.00214507
6.09794e-05
0.000918679
0.0015283
0.00187168
0.0020585
0.00216563
0.00222726
0.00226319
0.00228542
0.00229627
1.5e-05
0.000392355
0.00101689
0.00148804
0.0017715
0.001935
0.00202499
0.00207305
0.00209644
0.00210484
1.70209e-05
2.07854e-05
0.000259724
0.000601858
0.000902739
0.00111825
0.00125106
0.00132202
0.00135271
0.00136012
2.00558e-05
1.84941e-05
1.87766e-05
3.4875e-05
9.76643e-05
0.000166297
0.000217159
0.000247276
0.000262724
0.000267176
1.96623e-05
2.03522e-05
2.01516e-05
1.9217e-05
1.87552e-05
1.90037e-05
1.91229e-05
1.89668e-05
1.89417e-05
1.87184e-05
1.97935e-05
2.04103e-05
2.05128e-05
2.03151e-05
2.04119e-05
2.02212e-05
2.02596e-05
2.04981e-05
2.04351e-05
2.02257e-05
1.99394e-05
2.0285e-05
2.04182e-05
2.05989e-05
2.07179e-05
2.04433e-05
2.04772e-05
2.04478e-05
2.04879e-05
2.04242e-05
2.0004e-05
2.02772e-05
2.03631e-05
2.02944e-05
2.01606e-05
2.03936e-05
2.00815e-05
1.98908e-05
1.95021e-05
1.94593e-05
1.96856e-05
2.00547e-05
1.97192e-05
1.91093e-05
1.86943e-05
1.80368e-05
1.75773e-05
1.73252e-05
1.71806e-05
1.70813e-05
1.90412e-05
1.75204e-05
1.94237e-05
3.65848e-05
8.12834e-05
0.000138972
0.000190937
0.0002343
0.000266994
0.000291185
1.55021e-05
9.8774e-05
0.00042091
0.000746082
0.00101433
0.00121278
0.00135283
0.00145199
0.00151977
0.00156611
8.83421e-05
0.000861649
0.00150136
0.00189763
0.0021238
0.00225762
0.00234072
0.00239526
0.00243061
0.00245454
0.000683876
0.00161087
0.00200105
0.00218958
0.0022951
0.00235977
0.00239843
0.00242233
0.00243698
0.00244548
0.00124526
0.00172064
0.00179152
0.00182561
0.00185017
0.00186519
0.0018742
0.00187962
0.00188125
0.00188319
0.00182417
0.00178373
0.00171973
0.00169403
0.00168048
0.00166978
0.00165968
0.00164786
0.00163859
0.00163074
2.04694e-05
2.03554e-05
2.04833e-05
2.03245e-05
2.06493e-05
2.05857e-05
2.04469e-05
2.05181e-05
2.07063e-05
2.09424e-05
2.09661e-05
2.10316e-05
2.13114e-05
2.12249e-05
2.10482e-05
2.10973e-05
2.12763e-05
2.12505e-05
2.12174e-05
2.11427e-05
2.04069e-05
2.05044e-05
2.04651e-05
2.05081e-05
2.04233e-05
2.02331e-05
2.02012e-05
2.01831e-05
2.01136e-05
1.98265e-05
1.95606e-05
1.93248e-05
1.90011e-05
1.86141e-05
1.83507e-05
1.80701e-05
1.79807e-05
1.78576e-05
1.76278e-05
1.73713e-05
1.92616e-05
1.8838e-05
1.87432e-05
1.85129e-05
1.82365e-05
1.79894e-05
1.74649e-05
1.70221e-05
1.65769e-05
1.61248e-05
1.57579e-05
1.54219e-05
1.529e-05
1.51609e-05
1.50962e-05
1.5064e-05
1.50406e-05
1.50292e-05
1.50219e-05
1.50189e-05
1.70041e-05
1.68606e-05
1.69084e-05
1.68646e-05
1.7008e-05
1.72562e-05
1.76027e-05
1.83922e-05
1.97917e-05
2.23643e-05
2.75845e-05
3.64823e-05
5.07569e-05
7.07603e-05
9.65665e-05
0.000125686
0.000157664
0.000193932
0.000225051
0.000313268
0.000308676
0.000325388
0.000344251
0.000366688
0.000394165
0.000427275
0.000466304
0.000512945
0.00056732
0.000630079
0.000701291
0.000780922
0.00086661
0.0009594
0.00105767
0.00116369
0.00127944
0.00141252
0.00153396
0.00180598
0.00159734
0.00162485
0.00165644
0.0016923
0.00173397
0.00177967
0.0018326
0.0018918
0.00195919
0.00203194
0.00211004
0.00219546
0.00228499
0.00237901
0.00247785
0.00258062
0.00268883
0.00280726
0.0029141
0.00311569
0.00247003
0.0024841
0.0024983
0.00251561
0.00253579
0.00255825
0.00258322
0.00261162
0.00264293
0.00267972
0.00271972
0.00276456
0.00281633
0.00287301
0.00293473
0.00300259
0.00307527
0.00315089
0.00322181
0.00333801
0.00245179
0.00245749
0.00246354
0.00246906
0.00247667
0.00248429
0.0024931
0.00250341
0.0025166
0.0025315
0.00254923
0.00257215
0.0025991
0.0026295
0.0026656
0.00270293
0.0027419
0.0027799
0.00281341
0.00286135
0.00188289
0.00188441
0.0018851
0.0018859
0.00188546
0.00188699
0.00188628
0.00188632
0.00188688
0.00188652
0.00188655
0.0018868
0.00188765
0.00188852
0.00188875
0.00189009
0.00189184
0.00189094
0.00189392
0.00189442
0.00162538
0.00161995
0.00161376
0.00160598
0.00159733
0.00158739
0.00157454
0.0015606
0.0015428
0.0015251
0.00150586
0.0014868
0.00146905
0.00145299
0.00144088
0.00143178
0.00142657
0.00142433
0.0014238
0.00142434
0.00078462
0.00133201
0.00215657
0.00302299
0.0037673
0.00428969
0.004589
0.0047381
0.0048341
0.00494234
0.00508555
0.00525402
0.00542346
0.00557229
0.00568775
0.00576624
0.0058164
0.00583106
0.00587956
0.00563268
0.000948805
0.00122153
0.00172888
0.00241682
0.00309105
0.00360188
0.00392277
0.00410693
0.00424101
0.0043876
0.0045766
0.00479965
0.00503283
0.0052494
0.00542983
0.00556865
0.00567103
0.00573231
0.0058171
0.00559248
0.00140928
0.00152369
0.00172065
0.00205858
0.00249982
0.00291447
0.00321632
0.0034113
0.00355473
0.00370791
0.00391493
0.00417496
0.00447112
0.00476579
0.00503058
0.00524888
0.00542326
0.00554831
0.00568329
0.00553514
0.00183662
0.00189785
0.00198756
0.00212252
0.00231244
0.00252466
0.00270839
0.00283192
0.0029139
0.00300031
0.00314353
0.00337611
0.00369404
0.00405645
0.00441466
0.00473567
0.00500661
0.00522046
0.00542437
0.00541568
0.00216866
0.00220049
0.00224379
0.00230181
0.00237165
0.00243936
0.00248287
0.00248274
0.00244892
0.00241141
0.00241347
0.00250791
0.00273096
0.00307755
0.00349752
0.00392726
0.00431998
0.00465582
0.00495267
0.00515519
0.00230705
0.00231901
0.00233298
0.00234472
0.00234751
0.00232778
0.00227052
0.0021696
0.00204015
0.00190606
0.00179756
0.00174231
0.00177883
0.00194788
0.00227183
0.00272387
0.00322505
0.00370899
0.00413153
0.00458629
0.00210487
0.00210053
0.00209057
0.00206442
0.00201356
0.00192621
0.0017975
0.00163564
0.00145905
0.00129129
0.00115094
0.00104903
0.000991309
0.000991566
0.00107577
0.00129232
0.00167011
0.00220112
0.00274988
0.00351656
0.00135609
0.00134509
0.00132165
0.00127862
0.00121005
0.00110952
0.000981403
0.000836969
0.000694959
0.000570615
0.000470608
0.000396857
0.000345506
0.000316121
0.000306314
0.000327234
0.00039197
0.000572679
0.000809632
0.00163654
0.000267744
0.000265046
0.000258448
0.000244795
0.000222378
0.000188886
0.000145799
9.74302e-05
5.43364e-05
2.87388e-05
1.91211e-05
1.62203e-05
1.5429e-05
1.51969e-05
1.51257e-05
1.51164e-05
1.50929e-05
1.55307e-05
1.51478e-05
0.000133325
1.84898e-05
1.80821e-05
1.78749e-05
1.74388e-05
1.70184e-05
1.6701e-05
1.62623e-05
1.60437e-05
1.59309e-05
1.59467e-05
1.61605e-05
1.62955e-05
1.65163e-05
1.6645e-05
1.68366e-05
1.68767e-05
1.70226e-05
1.71086e-05
1.73066e-05
1.74734e-05
1.57703e-05
1.50284e-05
1.54304e-05
1.6218e-05
1.6414e-05
1.64613e-05
1.61508e-05
1.55553e-05
1.52765e-05
1.52236e-05
1.52004e-05
1.54367e-05
1.58288e-05
1.61856e-05
1.65214e-05
1.69483e-05
1.71124e-05
1.73798e-05
1.7466e-05
1.76686e-05
0.000154454
3.07102e-05
8.47597e-05
9.21835e-05
8.80101e-05
9.96908e-05
0.000105967
0.000107057
0.000100417
8.9057e-05
7.90274e-05
7.91922e-05
0.000108698
0.000130499
0.000146661
0.000156711
0.000163889
0.00017086
0.000174511
0.000180381
0.000221284
0.000146819
0.000196964
0.000233337
0.00027846
0.000314366
0.000332306
0.000332972
0.000319409
0.00029642
0.000273691
0.000256625
0.000267501
0.000284569
0.000298355
0.000309147
0.000317873
0.00032478
0.00032882
0.000334946
0.000271526
0.000244544
0.000335269
0.000463132
0.000540462
0.000599431
0.000628454
0.000626153
0.000599741
0.00055918
0.000516728
0.000476519
0.000464675
0.000474611
0.000487204
0.000497959
0.000506209
0.000513903
0.000517282
0.000523702
0.000314162
0.000346462
0.000574417
0.000782104
0.000900763
0.000992419
0.00103731
0.0010299
0.000985097
0.000918426
0.000847578
0.000782644
0.00074251
0.000733527
0.000735836
0.00074128
0.000745613
0.000749081
0.000751394
0.000753738
0.000356076
0.000474398
0.000927334
0.00122316
0.00139469
0.00153016
0.0015927
0.00157928
0.00150913
0.00140673
0.00129902
0.00119962
0.00112674
0.00108801
0.00107037
0.00106039
0.00105428
0.00104815
0.00104522
0.00103841
0.000404214
0.000686677
0.00142242
0.00181888
0.00206323
0.00225284
0.00233655
0.00231168
0.00220781
0.00205862
0.00190323
0.00175605
0.00164264
0.00156488
0.00151336
0.0014762
0.00145044
0.00142599
0.0014134
0.00138892
0.000467014
0.000993464
0.00200544
0.00254688
0.00292307
0.00319579
0.00331177
0.00327141
0.00312114
0.00291136
0.0026934
0.00248697
0.00231594
0.00218364
0.00208489
0.00200745
0.00195047
0.00189908
0.00186818
0.00181738
0.000538735
0.00141649
0.00261518
0.00333817
0.00389008
0.00428814
0.00447461
0.00443964
0.00424805
0.00397022
0.00367575
0.0033941
0.00314963
0.00294922
0.00278933
0.00265934
0.00255996
0.00247044
0.00241677
0.00232595
0.000591831
0.00185834
0.00321582
0.00412402
0.00485027
0.00537775
0.00564275
0.00563322
0.00542506
0.00510272
0.00474568
0.00439672
0.00408341
0.00381468
0.00359473
0.0034079
0.00326234
0.00312954
0.00304831
0.00291195
0.000644571
0.00227191
0.00376276
0.00483764
0.00572003
0.00635395
0.00667943
0.00669362
0.00648056
0.00613943
0.00575146
0.00536574
0.00501016
0.00469665
0.00443064
0.00419992
0.00401507
0.00384389
0.00373687
0.0035545
0.000674861
0.00260939
0.00418852
0.00539928
0.00639846
0.00710351
0.00746029
0.00748771
0.00728346
0.00694965
0.00656775
0.00618571
0.00582612
0.00550186
0.00521656
0.00496615
0.00475836
0.00456381
0.00444017
0.00421716
0.000683163
0.00279501
0.00439951
0.00568298
0.00673493
0.00745221
0.0078046
0.00783396
0.00765528
0.0073699
0.00704737
0.00672243
0.0064118
0.00612234
0.00586156
0.00562347
0.00542095
0.00522562
0.0051017
0.00485308
0.000657696
0.00277984
0.00426618
0.0054981
0.00648801
0.00713414
0.00743688
0.00746578
0.00734494
0.00716578
0.00697531
0.00678455
0.00659701
0.00641128
0.0062313
0.00605661
0.00589952
0.00573743
0.0056418
0.00538768
0.00125794
0.00231829
0.00345519
0.0044519
0.00524512
0.00576326
0.00602006
0.00608763
0.00608179
0.00607661
0.0060951
0.00612453
0.00615034
0.00615447
0.00613587
0.00609449
0.00604279
0.00596773
0.00594219
0.0057027
)
;

boundaryField
{
    inlet
    {
        type            fixedValue;
        value           uniform 2.0198e-05;
    }
    outlet
    {
        type            zeroGradient;
    }
    frontAndBack
    {
        type            empty;
    }
    noslipwall
    {
        type            calculated;
        value           nonuniform List<scalar> 
75
(
0.000121513
0.000112655
0.000109928
0.000108413
0.000107495
0.000106819
0.000106147
0.000105461
0.000104852
0.000104376
0.000104027
0.000103709
0.000103332
0.000102882
0.000102344
0.000101705
0.000100956
0.00010009
9.91185e-05
9.80649e-05
9.69813e-05
9.59274e-05
9.49836e-05
9.4193e-05
9.36117e-05
9.32096e-05
9.30141e-05
9.2922e-05
9.29521e-05
9.30277e-05
4.86488e-05
4.45058e-05
4.3938e-05
4.36278e-05
4.35157e-05
4.35323e-05
4.37559e-05
4.41239e-05
4.44356e-05
4.53768e-05
1.50239e-05
1.50262e-05
1.53022e-05
1.59372e-05
1.6238e-05
1.63259e-05
1.6055e-05
1.55785e-05
1.51693e-05
1.50009e-05
1.5129e-05
1.53289e-05
1.56118e-05
1.58805e-05
1.61095e-05
1.62977e-05
1.64423e-05
1.65853e-05
1.66628e-05
1.68108e-05
0.000441807
2.03607e-05
1.7912e-05
1.55332e-05
1.71536e-05
2.17186e-05
2.65164e-05
3.08442e-05
3.46415e-05
3.81621e-05
4.09501e-05
4.41577e-05
4.40816e-05
4.52516e-05
6.26155e-05
)
;
    }
}


// ************************************************************************* //
