/*--------------------------------*- C++ -*----------------------------------*\
  =========                 |
  \\      /  F ield         | OpenFOAM: The Open Source CFD Toolbox
   \\    /   O peration     | Website:  https://openfoam.org
    \\  /    A nd           | Version:  7
     \\/     M anipulation  |
\*---------------------------------------------------------------------------*/
FoamFile
{
    version     2.0;
    format      ascii;
    class       volScalarField;
    location    "486";
    object      nuef1;
}
// * * * * * * * * * * * * * * * * * * * * * * * * * * * * * * * * * * * * * //

dimensions      [0 2 -1 0 0 0 0];

internalField   nonuniform List<scalar> 
900
(
0.00045095
0.000423254
0.000417606
0.00041499
0.000414297
0.000414801
0.000418084
0.000422457
0.00042872
0.000420491
0.000466483
0.000609386
0.000633512
0.000641628
0.000646067
0.000648795
0.00065218
0.000652168
0.000664993
0.00063754
0.000510152
0.00089091
0.00100259
0.0010479
0.00106942
0.00108337
0.00109234
0.00109792
0.00110825
0.00109992
0.000454371
0.00103665
0.00126559
0.00136668
0.00141745
0.00144847
0.00146629
0.0014796
0.00149147
0.00149279
0.000300602
0.00101152
0.00138216
0.00156379
0.0016583
0.00171336
0.00174511
0.00176619
0.0017817
0.00178923
4.44461e-05
0.000765067
0.00127461
0.00156042
0.00171592
0.00180528
0.00185622
0.00188706
0.00190501
0.00191505
1.5e-05
0.000324255
0.000848246
0.0012408
0.00147667
0.00161223
0.00168784
0.00172903
0.00174744
0.00175444
1.63583e-05
1.80048e-05
0.000211309
0.00050155
0.000753511
0.000933312
0.00104361
0.00110376
0.00112857
0.00113508
1.80679e-05
1.67681e-05
1.68343e-05
2.63956e-05
6.94056e-05
0.000128025
0.000172223
0.000199541
0.000212364
0.000217525
1.81337e-05
1.78454e-05
1.74548e-05
1.71537e-05
1.69941e-05
1.70171e-05
1.70808e-05
1.71134e-05
1.69894e-05
1.68823e-05
1.80351e-05
1.78036e-05
1.77583e-05
1.77974e-05
1.77429e-05
1.7796e-05
1.77822e-05
1.77092e-05
1.77331e-05
1.78049e-05
1.79924e-05
1.78609e-05
1.781e-05
1.77493e-05
1.77112e-05
1.77959e-05
1.77874e-05
1.77985e-05
1.77861e-05
1.78046e-05
1.7966e-05
1.78623e-05
1.78202e-05
1.78125e-05
1.78067e-05
1.7641e-05
1.75823e-05
1.74406e-05
1.73573e-05
1.71947e-05
1.81489e-05
1.7812e-05
1.73999e-05
1.70344e-05
1.67196e-05
1.65355e-05
1.63434e-05
1.61744e-05
1.60647e-05
1.60097e-05
1.77481e-05
1.64253e-05
1.7415e-05
2.65763e-05
5.75746e-05
0.000103635
0.000149282
0.00018701
0.000216526
0.000238004
1.53503e-05
7.16266e-05
0.000348883
0.000622999
0.000847029
0.00101184
0.00112962
0.00121159
0.00126837
0.00130663
6.58223e-05
0.000718652
0.00125115
0.00157978
0.00176919
0.00188125
0.00195142
0.00199655
0.00202647
0.00204586
0.00056885
0.00134187
0.00166692
0.00182364
0.00191314
0.00196644
0.00199928
0.0020193
0.00203181
0.00204003
0.00103661
0.00143328
0.00149189
0.00152173
0.00154181
0.0015546
0.00156195
0.00156587
0.00156871
0.00156977
0.00151725
0.00148291
0.00142874
0.00140769
0.00139568
0.00138745
0.00137914
0.0013714
0.00136376
0.00135793
1.77325e-05
1.77743e-05
1.77436e-05
1.78085e-05
1.77308e-05
1.77874e-05
1.78872e-05
1.79409e-05
1.79738e-05
1.79995e-05
1.80888e-05
1.81524e-05
1.8131e-05
1.8207e-05
1.82983e-05
1.8304e-05
1.82601e-05
1.82764e-05
1.82935e-05
1.83215e-05
1.78076e-05
1.77733e-05
1.77793e-05
1.77552e-05
1.77635e-05
1.77933e-05
1.7753e-05
1.76791e-05
1.75825e-05
1.75078e-05
1.73798e-05
1.72057e-05
1.70401e-05
1.68974e-05
1.67352e-05
1.66112e-05
1.64609e-05
1.63513e-05
1.63152e-05
1.62058e-05
1.71183e-05
1.71158e-05
1.69749e-05
1.6838e-05
1.66699e-05
1.64446e-05
1.62578e-05
1.60141e-05
1.57652e-05
1.55465e-05
1.53617e-05
1.52434e-05
1.51349e-05
1.50829e-05
1.50496e-05
1.50302e-05
1.50207e-05
1.50157e-05
1.50124e-05
1.50125e-05
1.5988e-05
1.6006e-05
1.59794e-05
1.60085e-05
1.60269e-05
1.60984e-05
1.62935e-05
1.66438e-05
1.73732e-05
1.88634e-05
2.16811e-05
2.71012e-05
3.64359e-05
5.06737e-05
6.95738e-05
9.28686e-05
0.000119351
0.000152675
0.000179924
0.00025693
0.000253323
0.000267105
0.000283926
0.00030385
0.000327158
0.000354761
0.00038784
0.000426825
0.00047271
0.000525665
0.00058551
0.000651388
0.000723523
0.000800475
0.000883409
0.000972515
0.00106814
0.00117933
0.00128026
0.00150645
0.00133287
0.00135591
0.00138208
0.00141197
0.00144564
0.00148482
0.00152871
0.0015784
0.00163319
0.00169427
0.00176097
0.00183126
0.0019059
0.00198403
0.00206576
0.00215194
0.00224232
0.00234
0.00242888
0.00259668
0.00205911
0.00207028
0.00208372
0.00209824
0.00211433
0.00213266
0.00215357
0.00217706
0.00220388
0.0022333
0.00226706
0.00230499
0.00234681
0.00239382
0.00244639
0.00250279
0.00256326
0.0026271
0.00268463
0.00278266
0.00204498
0.00204898
0.00205353
0.00205919
0.00206477
0.00207151
0.00207912
0.00208789
0.00209777
0.0021102
0.00212565
0.00214388
0.00216623
0.00219273
0.00222184
0.00225311
0.00228598
0.00231675
0.0023457
0.0023866
0.00157109
0.0015712
0.0015717
0.00157207
0.00157298
0.00157277
0.00157352
0.00157371
0.00157349
0.00157367
0.00157374
0.00157389
0.00157416
0.0015746
0.0015759
0.00157613
0.00157735
0.00157748
0.00157904
0.00158015
0.00135333
0.00134928
0.00134432
0.00133861
0.00133141
0.00132254
0.00131252
0.0013002
0.00128703
0.00127144
0.00125524
0.00123895
0.00122384
0.00121102
0.00120089
0.00119354
0.00118936
0.00118638
0.00118629
0.00118667
0.000654736
0.00111247
0.00179973
0.00252142
0.00314011
0.00357441
0.00382521
0.00394937
0.00402903
0.00411848
0.0042379
0.00437779
0.00451893
0.00464279
0.00473927
0.00480465
0.0048475
0.00485944
0.00489924
0.00469314
0.000792331
0.00101953
0.00144188
0.00201485
0.00257698
0.00300266
0.0032698
0.0034235
0.00353488
0.00365726
0.00381402
0.0040002
0.00419445
0.00437413
0.00452508
0.00464007
0.00472648
0.00477644
0.00484732
0.00466047
0.00117535
0.00127054
0.00143556
0.00171751
0.00208504
0.00242984
0.00268191
0.00284334
0.00296306
0.00309111
0.00326075
0.00348048
0.00372716
0.00397247
0.00419192
0.00437382
0.00451958
0.00462328
0.004736
0.00461212
0.00153221
0.00158319
0.0016568
0.00177025
0.00192843
0.00210618
0.00225819
0.00236183
0.00243005
0.00250104
0.00261989
0.0028146
0.00307956
0.00338169
0.00367981
0.0039465
0.00417252
0.00435099
0.00452046
0.00451283
0.00180876
0.00183477
0.00187106
0.00191939
0.00197775
0.00203448
0.00206965
0.00207096
0.00204265
0.00201012
0.00201296
0.00209153
0.00227663
0.00256613
0.00291599
0.00327337
0.00360062
0.00388042
0.00412812
0.00429621
0.00192401
0.00193402
0.00194575
0.00195611
0.00195823
0.00194118
0.00189299
0.00181003
0.00170173
0.00159
0.00149879
0.00145411
0.00148429
0.0016249
0.00189463
0.00227131
0.00268843
0.00309113
0.0034438
0.00382297
0.00175555
0.00175286
0.00174352
0.00172216
0.00167947
0.00160708
0.0015004
0.00136476
0.00121758
0.0010782
0.000961499
0.000875849
0.000827742
0.00082742
0.00089826
0.00107873
0.00139294
0.00183597
0.00229298
0.00293117
0.00113245
0.00112275
0.00110364
0.00106882
0.00101078
0.000926773
0.000819017
0.000698822
0.000580547
0.000476127
0.000392121
0.000328899
0.000285495
0.000259357
0.000251393
0.000268651
0.000324769
0.000477553
0.000676362
0.00136495
0.000217884
0.000215454
0.000209153
0.000197356
0.000177237
0.000147739
0.000109659
6.94549e-05
3.84896e-05
2.2695e-05
1.7148e-05
1.5634e-05
1.52247e-05
1.51041e-05
1.5062e-05
1.50526e-05
1.50522e-05
1.52452e-05
1.50669e-05
9.86616e-05
1.67838e-05
1.6721e-05
1.65284e-05
1.63422e-05
1.61024e-05
1.5834e-05
1.56695e-05
1.55445e-05
1.54986e-05
1.55075e-05
1.55293e-05
1.56227e-05
1.57159e-05
1.58388e-05
1.593e-05
1.60443e-05
1.61018e-05
1.61501e-05
1.61341e-05
1.62065e-05
1.53919e-05
1.50153e-05
1.5202e-05
1.55152e-05
1.56901e-05
1.5728e-05
1.55467e-05
1.52957e-05
1.5159e-05
1.51105e-05
1.5105e-05
1.5208e-05
1.53805e-05
1.55686e-05
1.57428e-05
1.58657e-05
1.60184e-05
1.61433e-05
1.62389e-05
1.64124e-05
0.000116655
2.28582e-05
5.78295e-05
6.38229e-05
6.01828e-05
6.9881e-05
7.73344e-05
7.69108e-05
7.11284e-05
6.32085e-05
5.4804e-05
5.39081e-05
7.73721e-05
9.41073e-05
0.000106735
0.000116848
0.000123972
0.000129911
0.000133217
0.000138844
0.000174906
0.000109927
0.000153222
0.000186183
0.00022643
0.000256931
0.000273152
0.000273136
0.000261023
0.000242043
0.000220501
0.000206579
0.000216478
0.000231058
0.000243453
0.000253501
0.000260443
0.000266978
0.000270585
0.000276454
0.000219603
0.000194743
0.000274571
0.000384427
0.000450492
0.000499632
0.000524062
0.000522109
0.000499902
0.000465769
0.000429205
0.000396657
0.000385853
0.000394272
0.000404858
0.000414163
0.000421172
0.000427055
0.000431044
0.000436181
0.000257692
0.000285742
0.000478741
0.000652091
0.000751736
0.000828533
0.000864822
0.00085994
0.000822639
0.000766634
0.000707776
0.000652868
0.000619601
0.000612365
0.000614705
0.000618577
0.000622089
0.000625168
0.000627135
0.000629335
0.000293457
0.000394528
0.000774475
0.00101922
0.00116365
0.00127645
0.00132862
0.00131752
0.00125915
0.00117357
0.0010839
0.000999943
0.000939977
0.0009089
0.00089353
0.000884914
0.00087956
0.000874818
0.000872375
0.000866904
0.00033554
0.000573152
0.00118754
0.00151578
0.00171999
0.00187845
0.00194888
0.00192822
0.00184096
0.00171627
0.00158624
0.00146535
0.00137004
0.00130512
0.00126254
0.00123182
0.00120994
0.00119062
0.00117925
0.00115967
0.000388236
0.000829827
0.00167336
0.00212269
0.00243732
0.00266367
0.00276008
0.00272609
0.00260207
0.00242704
0.0022451
0.0020734
0.00193103
0.00182094
0.00173889
0.00167461
0.00162691
0.00158353
0.00155877
0.00151564
0.000448485
0.00118228
0.00218083
0.00278229
0.00324207
0.00357352
0.00372802
0.00369897
0.00354062
0.00330989
0.00306421
0.00282922
0.00262585
0.00245786
0.00232581
0.00221742
0.00213502
0.00205989
0.00201486
0.00194051
0.000493916
0.00155089
0.00268101
0.00343682
0.00404299
0.00448196
0.00470144
0.00469357
0.00452047
0.00425193
0.00395465
0.00366448
0.00340388
0.0031801
0.00299534
0.00284122
0.00272
0.00260952
0.00254119
0.00242812
0.000538197
0.00189507
0.00313634
0.00403287
0.0047671
0.0052953
0.00556525
0.00557614
0.00540031
0.00511537
0.00479211
0.00447123
0.00417586
0.00391415
0.00369149
0.0035007
0.00334635
0.00320455
0.00311472
0.00296223
0.000563683
0.00217681
0.00349101
0.0044989
0.00533217
0.00591795
0.0062163
0.00623858
0.00606834
0.00579097
0.00547345
0.00515416
0.0048553
0.0045838
0.00434754
0.00413862
0.00396585
0.00380392
0.0037004
0.00351527
0.000569017
0.00233008
0.00366603
0.00473521
0.00561156
0.00620872
0.0065022
0.00652695
0.00637793
0.00614071
0.0058723
0.00560161
0.00534299
0.00510198
0.00488414
0.00468625
0.00451702
0.00435406
0.00425132
0.00404462
0.000547814
0.00231658
0.00355511
0.00458152
0.00540447
0.00594411
0.0061962
0.00622022
0.00611917
0.00596993
0.00581099
0.00565312
0.00549678
0.00534199
0.00519248
0.00504658
0.00491533
0.00478101
0.00470126
0.00448956
0.00104932
0.00193132
0.00288048
0.00371106
0.00437042
0.00480456
0.00501664
0.00507309
0.00506809
0.005063
0.00507797
0.00510414
0.00512392
0.00512815
0.00511296
0.00507828
0.00503506
0.00497265
0.00495147
0.00475214
)
;

boundaryField
{
    inlet
    {
        type            fixedValue;
        value           uniform 2.0198e-05;
    }
    outlet
    {
        type            zeroGradient;
    }
    frontAndBack
    {
        type            empty;
    }
    noslipwall
    {
        type            calculated;
        value           nonuniform List<scalar> 
75
(
0.000105463
9.75801e-05
9.51778e-05
9.38461e-05
9.30395e-05
9.24504e-05
9.18646e-05
9.12685e-05
9.07402e-05
9.03274e-05
9.0026e-05
8.97504e-05
8.94244e-05
8.90349e-05
8.85702e-05
8.80179e-05
8.73702e-05
8.6622e-05
8.57819e-05
8.487e-05
8.39309e-05
8.30158e-05
8.21944e-05
8.15052e-05
8.09997e-05
8.06507e-05
8.04832e-05
8.0409e-05
8.04388e-05
8.05176e-05
4.26408e-05
3.89871e-05
3.85039e-05
3.82381e-05
3.81478e-05
3.81621e-05
3.83724e-05
3.86778e-05
3.89872e-05
3.97591e-05
1.50152e-05
1.50195e-05
1.51274e-05
1.54973e-05
1.57126e-05
1.5799e-05
1.56529e-05
1.53638e-05
1.51133e-05
1.50004e-05
1.50664e-05
1.51766e-05
1.53462e-05
1.55102e-05
1.56541e-05
1.57801e-05
1.58778e-05
1.59721e-05
1.60247e-05
1.61258e-05
0.00044155
1.90962e-05
1.73962e-05
1.55199e-05
1.60966e-05
1.93479e-05
2.32079e-05
2.68323e-05
3.00593e-05
3.30548e-05
3.5464e-05
3.82493e-05
3.82096e-05
3.96808e-05
5.45863e-05
)
;
    }
}


// ************************************************************************* //
