/*--------------------------------*- C++ -*----------------------------------*\
  =========                 |
  \\      /  F ield         | OpenFOAM: The Open Source CFD Toolbox
   \\    /   O peration     | Website:  https://openfoam.org
    \\  /    A nd           | Version:  7
     \\/     M anipulation  |
\*---------------------------------------------------------------------------*/
FoamFile
{
    version     2.0;
    format      ascii;
    class       volScalarField;
    location    "486";
    object      nuef2;
}
// * * * * * * * * * * * * * * * * * * * * * * * * * * * * * * * * * * * * * //

dimensions      [0 2 -1 0 0 0 0];

internalField   nonuniform List<scalar> 
900
(
0.000482705
0.000453601
0.000447674
0.00044483
0.000443922
0.000444367
0.000447597
0.000451482
0.000458589
0.000449743
0.000497746
0.000650151
0.000676169
0.000685108
0.000689346
0.000692202
0.000695582
0.000695621
0.000708521
0.000679723
0.000544139
0.000950154
0.00106938
0.00111719
0.00114079
0.00115536
0.00116447
0.00117085
0.00118155
0.00117233
0.000485289
0.0011057
0.00134978
0.0014574
0.00151173
0.00154441
0.00156337
0.00157731
0.00159031
0.00159116
0.000322416
0.00107841
0.00147379
0.00166752
0.00176809
0.00182695
0.00186089
0.00188335
0.00189986
0.00190756
4.96362e-05
0.000816184
0.00135898
0.00166392
0.00182984
0.0019251
0.0019796
0.00201213
0.0020315
0.00204181
1.5e-05
0.000347097
0.000904354
0.00132302
0.00157471
0.00171956
0.00179995
0.00184343
0.00186349
0.00187095
1.65579e-05
1.87942e-05
0.000227695
0.000534995
0.000803171
0.000994831
0.00111261
0.00117635
0.00120312
0.00120993
1.86544e-05
1.72521e-05
1.73734e-05
2.89208e-05
7.86081e-05
0.000140965
0.000187478
0.000215717
0.000229415
0.000234321
1.85962e-05
1.85607e-05
1.82021e-05
1.77348e-05
1.74947e-05
1.75743e-05
1.7654e-05
1.7641e-05
1.75372e-05
1.73976e-05
1.85593e-05
1.85425e-05
1.85321e-05
1.85139e-05
1.84951e-05
1.84891e-05
1.8488e-05
1.84895e-05
1.84931e-05
1.84971e-05
1.85664e-05
1.85557e-05
1.85495e-05
1.8546e-05
1.85444e-05
1.85447e-05
1.85464e-05
1.85479e-05
1.8548e-05
1.85468e-05
1.85636e-05
1.85548e-05
1.85437e-05
1.85205e-05
1.84821e-05
1.84097e-05
1.82867e-05
1.81275e-05
1.79657e-05
1.78266e-05
1.86138e-05
1.84591e-05
1.80531e-05
1.76138e-05
1.72614e-05
1.6956e-05
1.66915e-05
1.6496e-05
1.63736e-05
1.63057e-05
1.81401e-05
1.67409e-05
1.7991e-05
2.95208e-05
6.51689e-05
0.000115481
0.000163413
0.000203056
0.000233605
0.000255963
1.53963e-05
8.04938e-05
0.000373008
0.000663985
0.000902688
0.00107868
0.00120386
0.00129154
0.00135197
0.00139292
7.31365e-05
0.000766245
0.00133436
0.00168548
0.0018871
0.0020064
0.00208087
0.00212912
0.00216086
0.00218175
0.000607171
0.00143132
0.00177803
0.00194532
0.00204015
0.00209722
0.002132
0.00215331
0.00216653
0.00217485
0.00110601
0.00152884
0.00159153
0.00162278
0.00164435
0.00165788
0.00166578
0.0016702
0.00167264
0.00167399
0.00161931
0.00158294
0.0015255
0.00150291
0.00149038
0.00148134
0.00147243
0.00146334
0.00145516
0.00144865
1.85011e-05
1.85058e-05
1.85132e-05
1.85249e-05
1.85436e-05
1.85732e-05
1.86172e-05
1.8677e-05
1.87501e-05
1.8829e-05
1.89052e-05
1.89715e-05
1.90241e-05
1.90627e-05
1.90892e-05
1.91062e-05
1.91172e-05
1.91234e-05
1.91285e-05
1.91313e-05
1.85448e-05
1.8542e-05
1.8537e-05
1.85286e-05
1.85142e-05
1.84901e-05
1.84505e-05
1.83881e-05
1.82947e-05
1.81647e-05
1.79979e-05
1.78024e-05
1.75919e-05
1.73838e-05
1.7191e-05
1.7024e-05
1.6883e-05
1.67654e-05
1.66814e-05
1.65322e-05
1.77176e-05
1.76103e-05
1.74767e-05
1.73119e-05
1.71113e-05
1.6872e-05
1.65962e-05
1.6295e-05
1.59891e-05
1.57059e-05
1.54702e-05
1.52948e-05
1.5177e-05
1.51046e-05
1.50626e-05
1.50394e-05
1.50262e-05
1.50195e-05
1.50152e-05
1.50144e-05
1.62698e-05
1.6249e-05
1.62399e-05
1.62519e-05
1.63017e-05
1.64187e-05
1.66581e-05
1.71284e-05
1.80498e-05
1.9863e-05
2.33882e-05
2.98907e-05
4.08308e-05
5.70405e-05
7.83685e-05
0.000103796
0.000132282
0.000166669
0.000195235
0.000275923
0.000271988
0.000286736
0.000304215
0.000324951
0.000349626
0.000379041
0.000414075
0.000455585
0.000504271
0.000560467
0.000624075
0.000694514
0.000771144
0.000853355
0.00094138
0.00103611
0.00113842
0.00125688
0.00136463
0.00160606
0.00142082
0.00144535
0.00147331
0.00150519
0.00154152
0.00158287
0.00162977
0.00168261
0.00174159
0.00180655
0.00187704
0.00195236
0.00203195
0.00211536
0.00220279
0.00229448
0.00239079
0.00249537
0.00259022
0.00276925
0.00219574
0.00220788
0.00222157
0.00223702
0.00225447
0.00227417
0.00229643
0.00232155
0.00234987
0.00238174
0.00241757
0.0024578
0.00250292
0.00255315
0.00260877
0.00266897
0.0027335
0.00280126
0.00286324
0.00296732
0.00218025
0.00218481
0.00218987
0.00219547
0.00220173
0.00220876
0.00221677
0.00222606
0.00223704
0.00225029
0.00226649
0.00228629
0.00231016
0.00233796
0.00236939
0.00240267
0.00243757
0.00247075
0.00250121
0.00254446
0.00167477
0.00167535
0.00167591
0.00167643
0.00167689
0.00167726
0.00167752
0.00167766
0.0016777
0.0016777
0.00167776
0.00167794
0.0016784
0.00167898
0.00167993
0.00168053
0.00168193
0.00168171
0.00168374
0.00168465
0.0014438
0.00143929
0.00143393
0.00142752
0.00141984
0.00141062
0.00139966
0.0013868
0.00137209
0.0013558
0.00133859
0.00132137
0.00130539
0.00129149
0.0012807
0.00127277
0.00126825
0.00126552
0.00126528
0.00126571
0.000697978
0.00118549
0.00191839
0.0026882
0.00334865
0.00381224
0.00407917
0.00421162
0.00429672
0.00439241
0.00451975
0.00466914
0.00481968
0.00495185
0.00505464
0.00512438
0.00516966
0.00518251
0.00522519
0.00500553
0.000844396
0.00108671
0.00153732
0.00214851
0.00274791
0.0032019
0.00348691
0.00365074
0.00376967
0.0039001
0.00406757
0.00426602
0.00447321
0.00466515
0.00482591
0.00494882
0.00504054
0.00509427
0.00516977
0.00497036
0.00125315
0.00135472
0.00153036
0.00183093
0.00222296
0.00259098
0.0028596
0.00303219
0.00315979
0.0032962
0.00347826
0.00371139
0.00397453
0.00423624
0.00447077
0.00466477
0.00482005
0.00493085
0.00505097
0.00491902
0.00163343
0.00168782
0.00176679
0.00188739
0.00205612
0.00224533
0.00240789
0.00251814
0.00259093
0.00266705
0.002794
0.0030013
0.00328388
0.00360604
0.00392415
0.0042089
0.00444985
0.00464009
0.004821
0.00481303
0.00192843
0.00195637
0.001995
0.00204655
0.00210873
0.00216911
0.00220705
0.00220788
0.00217774
0.00214355
0.00214613
0.00222998
0.0024277
0.00273618
0.00310935
0.00349079
0.00383981
0.00413824
0.00440228
0.00458182
0.00205138
0.00206204
0.00207451
0.00208532
0.00208767
0.00206973
0.00201853
0.00192959
0.00181426
0.0016951
0.00159814
0.00154995
0.00158224
0.0017323
0.00202006
0.00242179
0.00286686
0.00329657
0.00367247
0.00407678
0.00187171
0.00186847
0.00185892
0.00183597
0.00179056
0.0017132
0.00159919
0.00145484
0.00129788
0.00114907
0.00102451
0.000933461
0.000882162
0.000882033
0.00095731
0.00114977
0.00148511
0.00195739
0.0024449
0.00312581
0.00120683
0.0011967
0.00117615
0.0011386
0.00107706
0.000987563
0.000873045
0.000744804
0.000618657
0.000507645
0.000418359
0.000351684
0.000305674
0.000278489
0.000269915
0.000288381
0.000347306
0.000509283
0.000720726
0.00145527
0.000234751
0.000232235
0.000225845
0.000213434
0.000192556
0.000161694
0.000121808
7.85662e-05
4.33703e-05
2.44686e-05
1.77066e-05
1.57986e-05
1.5282e-05
1.51302e-05
1.50795e-05
1.50697e-05
1.50639e-05
1.53226e-05
1.50887e-05
0.00011025
1.72635e-05
1.71125e-05
1.69105e-05
1.66559e-05
1.63637e-05
1.60739e-05
1.58369e-05
1.56848e-05
1.56208e-05
1.56318e-05
1.57002e-05
1.58076e-05
1.5935e-05
1.60643e-05
1.61832e-05
1.62828e-05
1.63643e-05
1.64235e-05
1.64594e-05
1.65574e-05
1.54974e-05
1.5019e-05
1.52642e-05
1.57015e-05
1.589e-05
1.59316e-05
1.57121e-05
1.53689e-05
1.51928e-05
1.51417e-05
1.51317e-05
1.52705e-05
1.55019e-05
1.57381e-05
1.59579e-05
1.61575e-05
1.63201e-05
1.64842e-05
1.65815e-05
1.67683e-05
0.0001294
2.5109e-05
6.64389e-05
7.29826e-05
6.91152e-05
7.95919e-05
8.6744e-05
8.68132e-05
8.06858e-05
7.15579e-05
6.25159e-05
6.19332e-05
8.76676e-05
0.000106249
0.000120164
0.000130303
0.000137469
0.000143778
0.00014721
0.000152928
0.000190656
0.000122334
0.000168077
0.000202183
0.000244022
0.000276298
0.000293067
0.000293282
0.000280704
0.000260401
0.000238505
0.000223535
0.000233748
0.000249146
0.000261987
0.000272266
0.0002798
0.000286446
0.000290193
0.000296136
0.000237174
0.000211641
0.000295007
0.000410747
0.000480519
0.000532909
0.000558858
0.00055679
0.000533192
0.000496934
0.000458433
0.000423351
0.000412211
0.000421129
0.000432376
0.000442157
0.000449574
0.000456058
0.000459839
0.0004654
0.000276728
0.000306161
0.000510654
0.000695376
0.000801329
0.00088306
0.000922205
0.000916482
0.000876691
0.000817145
0.000754307
0.000696074
0.00066053
0.000652714
0.000655043
0.000659438
0.000663222
0.000666429
0.000668511
0.000670758
0.000314504
0.000421227
0.00082534
0.00108705
0.00124049
0.00136082
0.00141644
0.00140457
0.00134228
0.00125111
0.00115545
0.00106636
0.0010021
0.000968482
0.000952359
0.000943288
0.000937685
0.000932481
0.000929878
0.000923961
0.000358556
0.00061097
0.00126565
0.00161657
0.00183412
0.00200294
0.00207778
0.00205573
0.00196295
0.00183011
0.00169164
0.00156202
0.00146069
0.0013915
0.00134595
0.00131309
0.00128992
0.00126889
0.00125712
0.00123591
0.000414576
0.000884271
0.00178378
0.00226374
0.00259884
0.0028406
0.00294351
0.00290741
0.00277467
0.00258808
0.00239416
0.00221092
0.00205902
0.00194154
0.00185394
0.00178528
0.0017345
0.00168846
0.00166166
0.00161598
0.000478607
0.00126017
0.00232526
0.00296712
0.00345754
0.00381113
0.00397626
0.00394524
0.00377584
0.00352945
0.00326754
0.00301704
0.0028
0.00262124
0.00247993
0.00236436
0.00227631
0.0021964
0.0021485
0.00206867
0.000526566
0.00165312
0.00285883
0.00366531
0.00431141
0.00477981
0.00501442
0.005006
0.00482124
0.00453482
0.00421766
0.00390795
0.00362982
0.0033911
0.00319464
0.00302964
0.00290033
0.00278243
0.00270981
0.00258899
0.000573646
0.00202038
0.00334463
0.00430045
0.00508395
0.0056473
0.00593571
0.0059477
0.00575949
0.00545587
0.00511109
0.00476865
0.00445327
0.00417433
0.00393726
0.00373319
0.0035687
0.00341713
0.00332159
0.00315916
0.000600723
0.00232065
0.00372294
0.00479828
0.00568671
0.00631215
0.00662992
0.00665391
0.00647237
0.00617623
0.0058373
0.00549715
0.00517809
0.00488905
0.00463649
0.00441377
0.00422936
0.00405658
0.00394637
0.00374865
0.000607045
0.00248467
0.00390991
0.00505034
0.00598508
0.00662218
0.00693524
0.00696153
0.00680265
0.00654941
0.00626301
0.00597428
0.00569837
0.00544124
0.00520913
0.00499787
0.00481758
0.00464385
0.00453407
0.00431343
0.000584429
0.00247062
0.00379154
0.00488628
0.00576475
0.00633979
0.00660872
0.00663436
0.00652673
0.00636755
0.00619813
0.00602932
0.00586261
0.00569753
0.00553789
0.00538241
0.00524257
0.00509902
0.00501399
0.00478818
0.0011187
0.00205999
0.00307157
0.00395739
0.00466126
0.00512333
0.00535028
0.00541042
0.00540514
0.00540003
0.00541616
0.00544341
0.0054652
0.0054694
0.00545308
0.00541616
0.00537013
0.00530351
0.00528088
0.0050682
)
;

boundaryField
{
    inlet
    {
        type            fixedValue;
        value           uniform 2.0198e-05;
    }
    outlet
    {
        type            zeroGradient;
    }
    frontAndBack
    {
        type            empty;
    }
    noslipwall
    {
        type            calculated;
        value           nonuniform List<scalar> 
75
(
0.000110861
0.000102647
0.000100135
9.87413e-05
9.78968e-05
9.72784e-05
9.66634e-05
9.6037e-05
9.54814e-05
9.50472e-05
9.47299e-05
9.444e-05
9.40967e-05
9.36868e-05
9.31974e-05
9.26162e-05
9.19341e-05
9.11465e-05
9.0262e-05
8.93024e-05
8.83147e-05
8.73528e-05
8.64901e-05
8.57668e-05
8.52358e-05
8.4869e-05
8.46921e-05
8.4612e-05
8.4642e-05
8.47199e-05
4.46594e-05
4.0839e-05
4.03271e-05
4.00461e-05
3.99485e-05
3.99634e-05
4.01785e-05
4.05046e-05
4.08155e-05
4.16442e-05
1.50178e-05
1.50222e-05
1.51734e-05
1.56267e-05
1.58717e-05
1.59611e-05
1.57767e-05
1.54301e-05
1.51309e-05
1.50001e-05
1.50844e-05
1.52209e-05
1.54256e-05
1.56226e-05
1.57935e-05
1.59394e-05
1.60522e-05
1.61622e-05
1.62229e-05
1.63392e-05
0.000441627
1.9509e-05
1.7579e-05
1.55297e-05
1.63836e-05
2.00617e-05
2.42421e-05
2.81101e-05
3.15351e-05
3.47116e-05
3.72528e-05
4.01854e-05
4.01378e-05
4.15364e-05
5.72884e-05
)
;
    }
}


// ************************************************************************* //
