/*--------------------------------*- C++ -*----------------------------------*\
  =========                 |
  \\      /  F ield         | OpenFOAM: The Open Source CFD Toolbox
   \\    /   O peration     | Website:  https://openfoam.org
    \\  /    A nd           | Version:  7
     \\/     M anipulation  |
\*---------------------------------------------------------------------------*/
FoamFile
{
    version     2.0;
    format      ascii;
    class       volScalarField;
    location    "486";
    object      nut1;
}
// * * * * * * * * * * * * * * * * * * * * * * * * * * * * * * * * * * * * * //

dimensions      [0 2 -1 0 0 0 0];

internalField   nonuniform List<scalar> 
900
(
0.00043595
0.000408254
0.000402606
0.00039999
0.000399297
0.000399801
0.000403084
0.000407457
0.00041372
0.000405491
0.000451483
0.000594386
0.000618512
0.000626628
0.000631067
0.000633795
0.00063718
0.000637168
0.000649993
0.00062254
0.000495152
0.00087591
0.000987595
0.0010329
0.00105442
0.00106837
0.00107734
0.00108292
0.00109325
0.00108492
0.000439371
0.00102165
0.00125059
0.00135168
0.00140245
0.00143347
0.00145129
0.0014646
0.00147647
0.00147779
0.000285602
0.00099652
0.00136716
0.00154879
0.0016433
0.00169836
0.00173011
0.00175119
0.0017667
0.00177423
2.94461e-05
0.000750067
0.00125961
0.00154542
0.00170092
0.00179028
0.00184122
0.00187206
0.00189001
0.00190005
1.16779e-14
0.000309255
0.000833246
0.0012258
0.00146167
0.00159723
0.00167284
0.00171403
0.00173244
0.00173944
1.35829e-06
3.00483e-06
0.000196309
0.00048655
0.000738511
0.000918312
0.00102861
0.00108876
0.00111357
0.00112008
3.06793e-06
1.76805e-06
1.83429e-06
1.13956e-05
5.44056e-05
0.000113025
0.000157223
0.000184541
0.000197364
0.000202525
3.13375e-06
2.8454e-06
2.45476e-06
2.15367e-06
1.99412e-06
2.01706e-06
2.08082e-06
2.11343e-06
1.98942e-06
1.88229e-06
3.03514e-06
2.80363e-06
2.75826e-06
2.79744e-06
2.74287e-06
2.79604e-06
2.78219e-06
2.70918e-06
2.73311e-06
2.80485e-06
2.99236e-06
2.86087e-06
2.80997e-06
2.74926e-06
2.71124e-06
2.7959e-06
2.78736e-06
2.79853e-06
2.78609e-06
2.80462e-06
2.966e-06
2.86229e-06
2.82018e-06
2.81252e-06
2.80674e-06
2.64104e-06
2.58233e-06
2.44058e-06
2.35726e-06
2.19472e-06
3.14887e-06
2.81196e-06
2.39987e-06
2.03444e-06
1.71964e-06
1.53548e-06
1.34344e-06
1.1744e-06
1.06473e-06
1.00966e-06
2.74813e-06
1.42525e-06
2.41498e-06
1.15763e-05
4.25746e-05
8.86351e-05
0.000134282
0.00017201
0.000201526
0.000223004
3.50288e-07
5.66266e-05
0.000333883
0.000607999
0.000832029
0.000996844
0.00111462
0.00119659
0.00125337
0.00129163
5.08223e-05
0.000703652
0.00123615
0.00156478
0.00175419
0.00186625
0.00193642
0.00198155
0.00201147
0.00203086
0.00055385
0.00132687
0.00165192
0.00180864
0.00189814
0.00195144
0.00198428
0.0020043
0.00201681
0.00202503
0.00102161
0.00141828
0.00147689
0.00150673
0.00152681
0.0015396
0.00154695
0.00155087
0.00155371
0.00155477
0.00150225
0.00146791
0.00141374
0.00139269
0.00138068
0.00137245
0.00136414
0.0013564
0.00134876
0.00134293
2.73254e-06
2.7743e-06
2.74355e-06
2.80848e-06
2.73084e-06
2.7874e-06
2.88721e-06
2.94094e-06
2.97384e-06
2.99953e-06
3.08881e-06
3.1524e-06
3.13097e-06
3.20702e-06
3.29828e-06
3.30403e-06
3.26011e-06
3.27635e-06
3.2935e-06
3.32153e-06
2.80761e-06
2.77332e-06
2.77926e-06
2.7552e-06
2.7635e-06
2.79334e-06
2.75298e-06
2.67911e-06
2.5825e-06
2.50777e-06
2.37977e-06
2.2057e-06
2.0401e-06
1.89744e-06
1.73521e-06
1.61122e-06
1.46092e-06
1.35129e-06
1.31516e-06
1.2058e-06
2.11827e-06
2.11579e-06
1.97489e-06
1.83795e-06
1.66988e-06
1.44461e-06
1.25781e-06
1.01407e-06
7.65183e-07
5.46548e-07
3.617e-07
2.43356e-07
1.34898e-07
8.28799e-08
4.95689e-08
3.01635e-08
2.06727e-08
1.57162e-08
1.24444e-08
1.25295e-08
9.87978e-07
1.00604e-06
9.7937e-07
1.0085e-06
1.02685e-06
1.09843e-06
1.29352e-06
1.64382e-06
2.37325e-06
3.86343e-06
6.68114e-06
1.21012e-05
2.14359e-05
3.56737e-05
5.45738e-05
7.78686e-05
0.000104351
0.000137675
0.000164924
0.00024193
0.000238323
0.000252105
0.000268926
0.00028885
0.000312158
0.000339761
0.00037284
0.000411825
0.00045771
0.000510665
0.00057051
0.000636388
0.000708523
0.000785475
0.000868409
0.000957515
0.00105314
0.00116433
0.00126526
0.00149145
0.00131787
0.00134091
0.00136708
0.00139697
0.00143064
0.00146982
0.00151371
0.0015634
0.00161819
0.00167927
0.00174597
0.00181626
0.0018909
0.00196903
0.00205076
0.00213694
0.00222732
0.002325
0.00241388
0.00258168
0.00204411
0.00205528
0.00206872
0.00208324
0.00209933
0.00211766
0.00213857
0.00216206
0.00218888
0.0022183
0.00225206
0.00228999
0.00233181
0.00237882
0.00243139
0.00248779
0.00254826
0.0026121
0.00266963
0.00276766
0.00202998
0.00203398
0.00203853
0.00204419
0.00204977
0.00205651
0.00206412
0.00207289
0.00208277
0.0020952
0.00211065
0.00212888
0.00215123
0.00217773
0.00220684
0.00223811
0.00227098
0.00230175
0.0023307
0.0023716
0.00155609
0.0015562
0.0015567
0.00155707
0.00155798
0.00155777
0.00155852
0.00155871
0.00155849
0.00155867
0.00155874
0.00155889
0.00155916
0.0015596
0.0015609
0.00156113
0.00156235
0.00156248
0.00156404
0.00156515
0.00133833
0.00133428
0.00132932
0.00132361
0.00131641
0.00130754
0.00129752
0.0012852
0.00127203
0.00125644
0.00124024
0.00122395
0.00120884
0.00119602
0.00118589
0.00117854
0.00117436
0.00117138
0.00117129
0.00117167
0.000639736
0.00109747
0.00178473
0.00250642
0.00312511
0.00355941
0.00381021
0.00393437
0.00401403
0.00410348
0.0042229
0.00436279
0.00450393
0.00462779
0.00472427
0.00478965
0.0048325
0.00484444
0.00488424
0.00467814
0.000777331
0.00100453
0.00142688
0.00199985
0.00256198
0.00298766
0.0032548
0.0034085
0.00351988
0.00364226
0.00379902
0.0039852
0.00417945
0.00435913
0.00451008
0.00462507
0.00471148
0.00476144
0.00483232
0.00464547
0.00116035
0.00125554
0.00142056
0.00170251
0.00207004
0.00241484
0.00266691
0.00282834
0.00294806
0.00307611
0.00324575
0.00346548
0.00371216
0.00395747
0.00417692
0.00435882
0.00450458
0.00460828
0.004721
0.00459712
0.00151721
0.00156819
0.0016418
0.00175525
0.00191343
0.00209118
0.00224319
0.00234683
0.00241505
0.00248604
0.00260489
0.0027996
0.00306456
0.00336669
0.00366481
0.0039315
0.00415752
0.00433599
0.00450546
0.00449783
0.00179376
0.00181977
0.00185606
0.00190439
0.00196275
0.00201948
0.00205465
0.00205596
0.00202765
0.00199512
0.00199796
0.00207653
0.00226163
0.00255113
0.00290099
0.00325837
0.00358562
0.00386542
0.00411312
0.00428121
0.00190901
0.00191902
0.00193075
0.00194111
0.00194323
0.00192618
0.00187799
0.00179503
0.00168673
0.001575
0.00148379
0.00143911
0.00146929
0.0016099
0.00187963
0.00225631
0.00267343
0.00307613
0.0034288
0.00380797
0.00174055
0.00173786
0.00172852
0.00170716
0.00166447
0.00159208
0.0014854
0.00134976
0.00120258
0.0010632
0.000946499
0.000860849
0.000812742
0.00081242
0.00088326
0.00106373
0.00137794
0.00182097
0.00227798
0.00291617
0.00111745
0.00110775
0.00108864
0.00105382
0.000995778
0.000911773
0.000804017
0.000683822
0.000565547
0.000461127
0.000377121
0.000313899
0.000270495
0.000244357
0.000236393
0.000253651
0.000309769
0.000462553
0.000661362
0.00134995
0.000202884
0.000200454
0.000194153
0.000182356
0.000162237
0.000132739
9.46591e-05
5.44549e-05
2.34896e-05
7.69498e-06
2.14803e-06
6.34012e-07
2.24656e-07
1.04103e-07
6.19841e-08
5.26002e-08
5.22362e-08
2.45187e-07
6.69445e-08
8.36616e-05
1.78378e-06
1.72097e-06
1.52838e-06
1.34218e-06
1.10242e-06
8.34028e-07
6.69516e-07
5.4451e-07
4.98554e-07
5.07533e-07
5.29288e-07
6.22696e-07
7.15889e-07
8.38844e-07
9.30018e-07
1.04426e-06
1.10184e-06
1.15013e-06
1.13408e-06
1.20652e-06
3.91888e-07
1.52632e-08
2.0203e-07
5.15232e-07
6.90135e-07
7.27958e-07
5.46673e-07
2.95697e-07
1.58956e-07
1.10534e-07
1.04964e-07
2.07959e-07
3.80468e-07
5.68645e-07
7.42846e-07
8.65714e-07
1.01838e-06
1.14326e-06
1.23892e-06
1.41241e-06
0.000101655
7.85825e-06
4.28295e-05
4.88229e-05
4.51828e-05
5.4881e-05
6.23344e-05
6.19108e-05
5.61284e-05
4.82085e-05
3.9804e-05
3.89081e-05
6.23721e-05
7.91073e-05
9.17347e-05
0.000101848
0.000108972
0.000114911
0.000118217
0.000123844
0.000159906
9.49268e-05
0.000138222
0.000171183
0.00021143
0.000241931
0.000258152
0.000258136
0.000246023
0.000227043
0.000205501
0.000191579
0.000201478
0.000216058
0.000228453
0.000238501
0.000245443
0.000251978
0.000255585
0.000261454
0.000204603
0.000179743
0.000259571
0.000369427
0.000435492
0.000484632
0.000509062
0.000507109
0.000484902
0.000450769
0.000414205
0.000381657
0.000370853
0.000379272
0.000389858
0.000399163
0.000406172
0.000412055
0.000416044
0.000421181
0.000242692
0.000270742
0.000463741
0.000637091
0.000736736
0.000813533
0.000849822
0.00084494
0.000807639
0.000751634
0.000692776
0.000637868
0.000604601
0.000597365
0.000599705
0.000603577
0.000607089
0.000610168
0.000612135
0.000614335
0.000278457
0.000379528
0.000759475
0.00100422
0.00114865
0.00126145
0.00131362
0.00130252
0.00124415
0.00115857
0.0010689
0.000984943
0.000924977
0.0008939
0.00087853
0.000869914
0.00086456
0.000859818
0.000857375
0.000851904
0.00032054
0.000558152
0.00117254
0.00150078
0.00170499
0.00186345
0.00193388
0.00191322
0.00182596
0.00170127
0.00157124
0.00145035
0.00135504
0.00129012
0.00124754
0.00121682
0.00119494
0.00117562
0.00116425
0.00114467
0.000373236
0.000814827
0.00165836
0.00210769
0.00242232
0.00264867
0.00274508
0.00271109
0.00258707
0.00241204
0.0022301
0.0020584
0.00191603
0.00180594
0.00172389
0.00165961
0.00161191
0.00156853
0.00154377
0.00150064
0.000433485
0.00116728
0.00216583
0.00276729
0.00322707
0.00355852
0.00371302
0.00368397
0.00352562
0.00329489
0.00304921
0.00281422
0.00261085
0.00244286
0.00231081
0.00220242
0.00212002
0.00204489
0.00199986
0.00192551
0.000478916
0.00153589
0.00266601
0.00342182
0.00402799
0.00446696
0.00468644
0.00467857
0.00450547
0.00423693
0.00393965
0.00364948
0.00338888
0.0031651
0.00298034
0.00282622
0.002705
0.00259452
0.00252619
0.00241312
0.000523197
0.00188007
0.00312134
0.00401787
0.0047521
0.0052803
0.00555025
0.00556114
0.00538531
0.00510037
0.00477711
0.00445623
0.00416086
0.00389915
0.00367649
0.0034857
0.00333135
0.00318955
0.00309972
0.00294723
0.000548683
0.00216181
0.00347601
0.0044839
0.00531717
0.00590295
0.0062013
0.00622358
0.00605334
0.00577597
0.00545845
0.00513916
0.0048403
0.0045688
0.00433254
0.00412362
0.00395085
0.00378892
0.0036854
0.00350027
0.000554017
0.00231508
0.00365103
0.00472021
0.00559656
0.00619372
0.0064872
0.00651195
0.00636293
0.00612571
0.0058573
0.00558661
0.00532799
0.00508698
0.00486914
0.00467125
0.00450202
0.00433906
0.00423632
0.00402962
0.000532814
0.00230158
0.00354011
0.00456652
0.00538947
0.00592911
0.0061812
0.00620522
0.00610417
0.00595493
0.00579599
0.00563812
0.00548178
0.00532699
0.00517748
0.00503158
0.00490033
0.00476601
0.00468626
0.00447456
0.00103432
0.00191632
0.00286548
0.00369606
0.00435542
0.00478956
0.00500164
0.00505809
0.00505309
0.005048
0.00506297
0.00508914
0.00510892
0.00511315
0.00509796
0.00506328
0.00502006
0.00495765
0.00493647
0.00473714
)
;

boundaryField
{
    inlet
    {
        type            fixedValue;
        value           uniform 1.0198e-05;
    }
    outlet
    {
        type            zeroGradient;
    }
    frontAndBack
    {
        type            empty;
    }
    noslipwall
    {
        type            nutUSpaldingWallFunction;
        Cmu             0.09;
        kappa           0.41;
        E               9.8;
        value           nonuniform List<scalar> 
75
(
9.04633e-05
8.25801e-05
8.01778e-05
7.88461e-05
7.80395e-05
7.74504e-05
7.68646e-05
7.62685e-05
7.57402e-05
7.53274e-05
7.5026e-05
7.47504e-05
7.44244e-05
7.40349e-05
7.35702e-05
7.30179e-05
7.23702e-05
7.1622e-05
7.07819e-05
6.987e-05
6.89309e-05
6.80158e-05
6.71944e-05
6.65052e-05
6.59997e-05
6.56507e-05
6.54832e-05
6.5409e-05
6.54388e-05
6.55176e-05
2.76408e-05
2.39871e-05
2.35039e-05
2.32381e-05
2.31478e-05
2.31621e-05
2.33724e-05
2.36778e-05
2.39872e-05
2.47591e-05
1.51907e-08
1.9461e-08
1.27387e-07
4.97315e-07
7.12567e-07
7.99045e-07
6.52909e-07
3.63838e-07
1.13299e-07
4.47392e-10
6.64317e-08
1.76618e-07
3.46162e-07
5.10241e-07
6.54089e-07
7.80101e-07
8.77772e-07
9.72119e-07
1.02468e-06
1.12584e-06
0.00042655
4.09618e-06
2.39623e-06
5.1993e-07
1.09657e-06
4.3479e-06
8.20795e-06
1.18323e-05
1.50593e-05
1.80548e-05
2.0464e-05
2.32493e-05
2.32096e-05
2.46808e-05
3.95863e-05
)
;
    }
}


// ************************************************************************* //
