/*--------------------------------*- C++ -*----------------------------------*\
  =========                 |
  \\      /  F ield         | OpenFOAM: The Open Source CFD Toolbox
   \\    /   O peration     | Website:  https://openfoam.org
    \\  /    A nd           | Version:  7
     \\/     M anipulation  |
\*---------------------------------------------------------------------------*/
FoamFile
{
    version     2.0;
    format      ascii;
    class       volScalarField;
    location    "486";
    object      nuTilda;
}
// * * * * * * * * * * * * * * * * * * * * * * * * * * * * * * * * * * * * * //

dimensions      [0 2 -1 0 0 0 0];

internalField   nonuniform List<scalar> 
900
(
0.000410934
0.000385553
0.00038039
0.000378097
0.000377641
0.000378184
0.000381393
0.000386078
0.000391289
0.000383962
0.000426494
0.000557239
0.000579188
0.00058639
0.000590982
0.000593553
0.000596906
0.000596843
0.000609461
0.00058364
0.0004664
0.000818201
0.000921941
0.00096462
0.000983997
0.000997288
0.0010061
0.00101086
0.0010208
0.00101338
0.000415072
0.00095363
0.00116696
0.00126136
0.0013085
0.00133783
0.0013545
0.00136715
0.00137787
0.00137967
0.000278183
0.00093074
0.00127591
0.00144524
0.0015336
0.00158481
0.00161434
0.00163403
0.00164853
0.00165589
8.0851e-05
0.000701147
0.00117578
0.0014421
0.00158705
0.00167042
0.00171778
0.0017469
0.00176342
0.00177319
6.9606e-07
0.000298988
0.000778867
0.00114417
0.0013639
0.00149002
0.00156079
0.00159967
0.0016164
0.00162293
3.48299e-05
4.15804e-05
0.000204768
0.000458524
0.000691125
0.00085816
0.000960631
0.00101703
0.00103984
0.00104604
4.25398e-05
3.61593e-05
3.63313e-05
6.01091e-05
0.000100192
0.000142
0.000174014
0.000195211
0.000205067
0.000209616
4.32419e-05
4.11063e-05
3.9067e-05
3.80783e-05
3.74962e-05
3.7384e-05
3.76917e-05
3.80751e-05
3.72593e-05
3.67462e-05
4.26142e-05
4.08292e-05
4.04919e-05
4.08787e-05
4.0494e-05
4.09541e-05
4.08442e-05
4.02323e-05
4.04199e-05
4.09982e-05
4.22564e-05
4.12487e-05
4.08568e-05
4.03687e-05
4.00572e-05
4.07583e-05
4.06824e-05
4.07688e-05
4.06662e-05
4.08225e-05
4.20592e-05
4.12632e-05
4.09602e-05
4.0979e-05
4.10666e-05
3.9939e-05
3.98799e-05
3.92203e-05
3.90853e-05
3.81014e-05
4.32957e-05
4.11907e-05
3.91358e-05
3.73916e-05
3.55602e-05
3.48745e-05
3.38187e-05
3.25653e-05
3.16435e-05
3.11968e-05
4.18334e-05
3.46384e-05
3.95153e-05
5.98364e-05
9.13747e-05
0.00012464
0.000157127
0.000185134
0.000208527
0.000226031
2.4778e-05
0.000102261
0.000320756
0.000570462
0.000778104
0.000931116
0.00104119
0.00111728
0.00117031
0.00120583
9.87018e-05
0.000658589
0.00115351
0.00145925
0.00163627
0.00174102
0.00180685
0.00184881
0.00187692
0.00189479
0.000519713
0.00123785
0.0015409
0.00168691
0.00177103
0.00182051
0.0018514
0.00187013
0.00188192
0.00189004
0.000953251
0.00132304
0.0013775
0.0014059
0.00142446
0.0014365
0.00144329
0.00144671
0.00144995
0.00145071
0.00140041
0.00136813
0.00131729
0.00129781
0.00128632
0.00127893
0.00127122
0.00126485
0.00125777
0.00125261
4.0387e-05
4.07165e-05
4.0436e-05
4.09306e-05
4.02239e-05
4.05896e-05
4.12482e-05
4.14719e-05
4.1485e-05
4.14235e-05
4.18636e-05
4.2132e-05
4.18012e-05
4.225e-05
4.28398e-05
4.28282e-05
4.24713e-05
4.25713e-05
4.26811e-05
4.28767e-05
4.08538e-05
4.0582e-05
4.06485e-05
4.0479e-05
4.0598e-05
4.09287e-05
4.07355e-05
4.03401e-05
3.98519e-05
3.96801e-05
3.91662e-05
3.8307e-05
3.75445e-05
3.69734e-05
3.60798e-05
3.54537e-05
3.4313e-05
3.34999e-05
3.3484e-05
3.28094e-05
3.77989e-05
3.82304e-05
3.73759e-05
3.66581e-05
3.5712e-05
3.41599e-05
3.31773e-05
3.13474e-05
2.908e-05
2.67122e-05
2.40242e-05
2.21846e-05
1.86986e-05
1.67312e-05
1.47094e-05
1.28661e-05
1.18021e-05
1.10851e-05
1.05127e-05
1.06927e-05
3.10812e-05
3.15421e-05
3.11501e-05
3.15627e-05
3.15151e-05
3.18847e-05
3.33166e-05
3.53168e-05
3.89046e-05
4.44467e-05
5.14507e-05
6.09838e-05
7.25679e-05
8.60269e-05
0.000100645
0.000117239
0.000135529
0.000159836
0.000180074
0.000241592
0.000238721
0.000250008
0.000264468
0.000281825
0.000302039
0.000326135
0.000355608
0.000390547
0.000432256
0.000480785
0.000535878
0.000596397
0.000663392
0.000734576
0.000812004
0.000895156
0.000983814
0.00108748
0.00118142
0.00139208
0.00123036
0.0012519
0.00127622
0.00130409
0.00133506
0.00137203
0.00141287
0.00145935
0.0015099
0.00156705
0.0016299
0.00169511
0.00176474
0.00183755
0.00191355
0.00199416
0.00207857
0.0021693
0.00225217
0.00240866
0.00190728
0.00191748
0.00193066
0.00194425
0.00195896
0.00197592
0.00199547
0.00201731
0.00204263
0.00206957
0.00210124
0.00213686
0.00217535
0.00221912
0.00226863
0.00232119
0.00237758
0.00243747
0.00249054
0.00258249
0.00189452
0.00189796
0.00190201
0.00190771
0.00191261
0.00191905
0.00192627
0.00193452
0.0019433
0.00195489
0.00196958
0.00198625
0.00200705
0.00203223
0.002059
0.00208824
0.00211907
0.00214743
0.00217484
0.00221339
0.00145257
0.00145222
0.00145265
0.00145288
0.00145424
0.00145345
0.00145468
0.00145492
0.00145444
0.0014548
0.00145488
0.001455
0.00145508
0.00145537
0.00145704
0.00145689
0.00145794
0.00145841
0.00145949
0.00146081
0.00124827
0.00124469
0.00124015
0.00123513
0.00122842
0.00121993
0.00121086
0.0011991
0.00118749
0.00117263
0.00115746
0.00114212
0.00112791
0.0011162
0.00110674
0.00109998
0.00109616
0.00109294
0.00109299
0.00109332
0.000599595
0.0010253
0.00166605
0.00233923
0.00291592
0.00332078
0.00355539
0.00367122
0.00374542
0.00382859
0.00394007
0.00407042
0.00420211
0.00431763
0.00440777
0.00446878
0.00450919
0.00452022
0.00455711
0.00436463
0.000727293
0.000938426
0.00133175
0.00186602
0.0023906
0.00278782
0.003037
0.00318052
0.00328431
0.00339861
0.0035446
0.00371847
0.00389972
0.00406707
0.00420818
0.00431521
0.00439629
0.00444248
0.00450871
0.00433447
0.00108326
0.00117189
0.00132607
0.00158914
0.00193192
0.00225333
0.00248873
0.00263896
0.00275074
0.00287039
0.00302754
0.00323381
0.00346396
0.00369278
0.00389708
0.00406683
0.00420304
0.00429961
0.00440489
0.00428913
0.00141619
0.00146372
0.00153191
0.00163812
0.00178563
0.00195181
0.0020932
0.00219018
0.0022538
0.00231962
0.00243032
0.00261237
0.00285962
0.0031416
0.00341966
0.0036682
0.00387922
0.00404588
0.00420384
0.00419657
0.00167406
0.00169811
0.00173204
0.00177712
0.00183163
0.00188468
0.00191705
0.00191884
0.00189239
0.00186152
0.00186462
0.00193787
0.00211025
0.00238065
0.00270706
0.00304026
0.00334564
0.00360671
0.003838
0.0039946
0.00178153
0.0017909
0.00180187
0.00181176
0.00181366
0.00179751
0.00175237
0.00167543
0.00157425
0.00147005
0.00138467
0.00134356
0.00137161
0.00150262
0.00175412
0.00210553
0.00249452
0.00287006
0.00319938
0.00355331
0.00162441
0.00162226
0.00161314
0.00159339
0.00155345
0.00148609
0.00138685
0.00126008
0.00112291
0.000993253
0.000884752
0.000804837
0.000760153
0.000759639
0.000825713
0.000993616
0.00128614
0.0016995
0.00212575
0.00272095
0.00104387
0.00103463
0.001017
0.000984996
0.000930608
0.000852374
0.000751865
0.000640529
0.000531439
0.000435625
0.000359692
0.000303354
0.000265988
0.000243604
0.000237159
0.000251293
0.000299755
0.000436805
0.000619888
0.00126004
0.000209856
0.00020789
0.000202704
0.000193505
0.000177928
0.000156089
0.000128905
0.000100303
7.45528e-05
5.38026e-05
3.81406e-05
2.79365e-05
2.15261e-05
1.77641e-05
1.54851e-05
1.47207e-05
1.50399e-05
2.1708e-05
1.56403e-05
0.000121108
3.62828e-05
3.63035e-05
3.50279e-05
3.40114e-05
3.23201e-05
2.97559e-05
2.83873e-05
2.68941e-05
2.63754e-05
2.64973e-05
2.63101e-05
2.75739e-05
2.85065e-05
2.99286e-05
3.06988e-05
3.19405e-05
3.23066e-05
3.2666e-05
3.21803e-05
3.26623e-05
2.46853e-05
1.10031e-05
2.07136e-05
2.59081e-05
2.83483e-05
2.87985e-05
2.66469e-05
2.31071e-05
1.9926e-05
1.79046e-05
1.77836e-05
2.08978e-05
2.42275e-05
2.6942e-05
2.88826e-05
2.97048e-05
3.1243e-05
3.21622e-05
3.29923e-05
3.43114e-05
0.000133663
5.33321e-05
9.07776e-05
9.55633e-05
9.2601e-05
0.000100188
0.000106407
0.000105696
0.000101324
9.56799e-05
8.87692e-05
8.76811e-05
0.000105762
0.000117262
0.000125755
0.000133264
0.00013854
0.000142692
0.000145074
0.000149238
0.000175721
0.000128909
0.000159564
0.000184508
0.000216445
0.000241252
0.000255139
0.00025491
0.000244573
0.000229164
0.000211059
0.00020034
0.00020832
0.00021995
0.000230228
0.000238787
0.000244358
0.000250046
0.00025313
0.00025831
0.000210683
0.000190671
0.000255925
0.000352273
0.000412186
0.000456817
0.000479221
0.000477421
0.000457068
0.000425896
0.000392385
0.000363585
0.000353595
0.000361146
0.000370636
0.000379105
0.000385449
0.00039053
0.000394582
0.000399128
0.000242223
0.000265987
0.000437781
0.000596934
0.000689429
0.000760834
0.000794088
0.00079007
0.000755445
0.000703309
0.00064886
0.000597782
0.000567163
0.000560594
0.000562916
0.000566219
0.000569417
0.00057233
0.00057416
0.000576287
0.000272392
0.000361544
0.000710747
0.000937474
0.00107254
0.0011776
0.00122625
0.00121595
0.00116158
0.00108174
0.000998273
0.000919666
0.000864195
0.000835779
0.000821225
0.000813099
0.000808018
0.00080376
0.000801487
0.000796487
0.000309322
0.000524447
0.00109511
0.00140021
0.00159089
0.00173888
0.00180485
0.00178561
0.00170393
0.00158747
0.00146598
0.00135396
0.00126478
0.00120422
0.00116468
0.00113615
0.0011156
0.00109802
0.00108708
0.00106917
0.000355884
0.000762204
0.00154801
0.00196642
0.00226043
0.00247126
0.00256112
0.00252927
0.00241403
0.00225063
0.00208074
0.00192068
0.00178792
0.00168529
0.00160886
0.001549
0.00150444
0.00146376
0.00144107
0.00140052
0.000410148
0.00109009
0.00202115
0.00258193
0.00301093
0.00332011
0.00346394
0.00343687
0.00328962
0.00307463
0.00284524
0.00262586
0.00243623
0.0022791
0.00215636
0.0020552
0.00197849
0.00190818
0.00186605
0.00179722
0.000451851
0.00143384
0.0024877
0.00319258
0.00375864
0.00416805
0.00437234
0.00436502
0.00420362
0.00395306
0.00367572
0.0034052
0.0031622
0.00295344
0.00278045
0.00263726
0.00252418
0.00242116
0.00235714
0.00225187
0.000492435
0.00175468
0.00291242
0.00374936
0.00443412
0.00492702
0.00517844
0.00518822
0.00502482
0.00475864
0.00445698
0.00415775
0.00388249
0.00363808
0.0034299
0.00325245
0.00310828
0.00297631
0.00289222
0.00274971
0.000515901
0.00201772
0.00324333
0.00418346
0.00496134
0.00550731
0.00578615
0.00580672
0.00564783
0.0053893
0.00509327
0.00479493
0.00451634
0.00426245
0.00404258
0.00384751
0.00368644
0.0035354
0.00343859
0.00326612
0.00052017
0.00216016
0.00340633
0.00440395
0.00522167
0.00577874
0.00605255
0.00607576
0.00593664
0.00571549
0.00546516
0.00521257
0.00497132
0.00474648
0.00454299
0.00435851
0.0042004
0.00404825
0.00395258
0.00375988
0.000500722
0.00214722
0.00330289
0.00426067
0.00502789
0.00553198
0.00576715
0.00578955
0.0056951
0.00555586
0.00540744
0.00526055
0.00511463
0.00497016
0.00483083
0.00469453
0.0045719
0.00444686
0.00437241
0.00417488
0.000965928
0.00178753
0.00267384
0.0034489
0.00406356
0.00446965
0.0046668
0.00471954
0.00471482
0.00470976
0.00472355
0.00474863
0.0047664
0.00477067
0.00475662
0.00472417
0.00468379
0.0046256
0.00460588
0.00441995
)
;

boundaryField
{
    inlet
    {
        type            fixedValue;
        value           uniform 4.65e-05;
    }
    outlet
    {
        type            zeroGradient;
    }
    frontAndBack
    {
        type            empty;
    }
    noslipwall
    {
        type            zeroGradient;
    }
}


// ************************************************************************* //
