/*--------------------------------*- C++ -*----------------------------------*\
  =========                 |
  \\      /  F ield         | OpenFOAM: The Open Source CFD Toolbox
   \\    /   O peration     | Website:  https://openfoam.org
    \\  /    A nd           | Version:  7
     \\/     M anipulation  |
\*---------------------------------------------------------------------------*/
FoamFile
{
    version     2.0;
    format      ascii;
    class       volScalarField;
    location    "486";
    object      nuTilda3;
}
// * * * * * * * * * * * * * * * * * * * * * * * * * * * * * * * * * * * * * //

dimensions      [0 2 -1 0 0 0 0];

internalField   nonuniform List<scalar> 
900
(
0.000504154
0.000474222
0.000468146
0.000465142
0.000464046
0.000464422
0.000467531
0.000470862
0.000478644
0.00046938
0.000518467
0.000678612
0.000706334
0.000716036
0.000720047
0.000723013
0.000726369
0.000726458
0.000739359
0.000709395
0.000566891
0.000995805
0.00112235
0.00117259
0.00119825
0.00121341
0.00122266
0.00122984
0.00124089
0.00123079
0.000505877
0.00116088
0.00141987
0.00153395
0.00159183
0.00162616
0.00164624
0.00166082
0.00167494
0.00167531
0.000339251
0.00113146
0.00155125
0.00175701
0.00186363
0.00192628
0.00196241
0.00198625
0.00200376
0.00201162
9.56388e-05
0.000854102
0.00142923
0.0017532
0.0019295
0.00203066
0.00208871
0.00212293
0.00214373
0.0021543
3.62301e-05
0.000363719
0.000946982
0.00139116
0.00165855
0.00181265
0.00189781
0.00194356
0.00196528
0.00197321
3.87383e-05
5.00865e-05
0.00024715
0.000557328
0.000839683
0.00104266
0.00116773
0.00123499
0.00126368
0.00127078
4.89021e-05
4.37064e-05
4.44723e-05
7.16859e-05
0.000121856
0.000171797
0.000211426
0.000236434
0.000249245
0.000253391
4.82517e-05
4.91377e-05
4.82277e-05
4.59656e-05
4.47105e-05
4.52903e-05
4.56499e-05
4.53747e-05
4.511e-05
4.44302e-05
4.83752e-05
4.91822e-05
4.92968e-05
4.90076e-05
4.91015e-05
4.88398e-05
4.88889e-05
4.92033e-05
4.91281e-05
4.88598e-05
4.85915e-05
4.90406e-05
4.92045e-05
4.94311e-05
4.95787e-05
4.92288e-05
4.92756e-05
4.92401e-05
4.92923e-05
4.92076e-05
4.86757e-05
4.90287e-05
4.91227e-05
4.89917e-05
4.87463e-05
4.89267e-05
4.82891e-05
4.77306e-05
4.68617e-05
4.65207e-05
4.83153e-05
4.85623e-05
4.73465e-05
4.55428e-05
4.40728e-05
4.21237e-05
4.04512e-05
3.92882e-05
3.85408e-05
3.80598e-05
4.64932e-05
4.047e-05
4.6795e-05
7.31032e-05
0.00011035
0.000151389
0.00019062
0.000225343
0.000252995
0.000273904
2.72187e-05
0.000122998
0.000389824
0.000692568
0.000944873
0.00113168
0.00126411
0.00135743
0.00142147
0.00146509
0.000116215
0.000800845
0.00140348
0.00177694
0.00199076
0.00211728
0.00219605
0.00224743
0.00228097
0.00230338
0.00063355
0.00150663
0.00187488
0.00205274
0.00215289
0.00221374
0.00225045
0.00227306
0.00228699
0.00229539
0.00116154
0.00161021
0.00167696
0.00170962
0.00173266
0.00174693
0.00175539
0.0017603
0.00176234
0.00176398
0.00170716
0.00166877
0.00160809
0.00158396
0.00157093
0.00156106
0.00155156
0.00154111
0.00153239
0.00152522
4.91865e-05
4.90465e-05
4.92257e-05
4.90391e-05
4.94909e-05
4.94613e-05
4.93584e-05
4.95523e-05
4.99142e-05
5.0338e-05
5.04914e-05
5.06781e-05
5.10962e-05
5.10551e-05
5.08852e-05
5.09712e-05
5.12017e-05
5.1181e-05
5.11497e-05
5.10651e-05
4.91818e-05
4.93031e-05
4.92436e-05
4.92845e-05
4.91498e-05
4.88572e-05
4.8745e-05
4.86096e-05
4.83473e-05
4.77107e-05
4.70106e-05
4.62697e-05
4.53242e-05
4.42218e-05
4.33042e-05
4.23649e-05
4.18197e-05
4.12495e-05
4.05303e-05
3.95094e-05
4.59983e-05
4.50998e-05
4.46502e-05
4.38805e-05
4.28994e-05
4.18069e-05
3.99196e-05
3.78711e-05
3.5431e-05
3.24958e-05
2.93471e-05
2.56641e-05
2.29736e-05
1.99594e-05
1.75433e-05
1.57348e-05
1.41207e-05
1.30534e-05
1.22001e-05
1.18974e-05
3.7735e-05
3.72783e-05
3.73743e-05
3.72997e-05
3.78585e-05
3.88742e-05
4.04077e-05
4.3225e-05
4.74431e-05
5.35223e-05
6.22407e-05
7.3303e-05
8.69314e-05
0.000102874
0.000121351
0.000141928
0.000165036
0.000193162
0.000218041
0.000293125
0.000289202
0.000303726
0.000320666
0.000340991
0.000365787
0.000395794
0.000431639
0.000474621
0.000525183
0.000583831
0.000650554
0.000725032
0.000805753
0.000892906
0.00098578
0.00108593
0.00119478
0.0013204
0.00143489
0.00169144
0.00149463
0.00152063
0.00155039
0.00158423
0.00162321
0.00166671
0.0017166
0.00177259
0.00183575
0.00190458
0.00197885
0.0020592
0.00214374
0.00223243
0.00232555
0.00242276
0.002525
0.00263649
0.00273732
0.00292761
0.00231811
0.00233121
0.00234515
0.00236153
0.00238034
0.00240142
0.00242503
0.00245179
0.0024816
0.00251592
0.00255384
0.00259636
0.0026448
0.00269825
0.00275691
0.00282094
0.00288953
0.00296122
0.00302766
0.00313779
0.00230125
0.00230638
0.00231193
0.00231749
0.00232442
0.00233175
0.00234016
0.00234995
0.00236204
0.00237611
0.00239308
0.00241443
0.00243984
0.00246893
0.00250269
0.00253799
0.00257492
0.00261051
0.00264249
0.00268808
0.00176422
0.00176527
0.0017659
0.00176656
0.00176656
0.00176751
0.00176729
0.00176738
0.00176768
0.0017675
0.00176754
0.00176776
0.00176841
0.00176914
0.00176973
0.0017707
0.00177227
0.00177171
0.00177422
0.00177492
0.00152012
0.00151515
0.00150938
0.00150229
0.00149413
0.00148456
0.00147266
0.00145927
0.00144303
0.00142605
0.00140784
0.00138972
0.00137287
0.0013579
0.00134647
0.00133795
0.0013331
0.00133062
0.00133022
0.00133072
0.000728591
0.00124454
0.00202278
0.00284075
0.00354307
0.00403604
0.00431915
0.00445992
0.00455046
0.00465243
0.0047877
0.00494663
0.00510662
0.00524711
0.00535623
0.00543035
0.00547807
0.00549182
0.00553742
0.00530415
0.000883162
0.00114006
0.00161857
0.0022679
0.00290462
0.003387
0.00368993
0.00386392
0.00399042
0.00412892
0.00430715
0.00451789
0.00473808
0.00494233
0.00511292
0.00524378
0.00534083
0.00539833
0.00547847
0.00526647
0.00131692
0.00142481
0.00161097
0.00193008
0.00234661
0.00273789
0.00302309
0.00320686
0.00334237
0.00348715
0.00368169
0.00392825
0.00420789
0.00448608
0.00473573
0.00494188
0.0051067
0.00522463
0.00535217
0.00521213
0.00172044
0.00177822
0.00186253
0.00199026
0.00216954
0.00237021
0.00254333
0.0026602
0.00273758
0.00281883
0.00295391
0.00317383
0.00347406
0.00381633
0.00415447
0.00445735
0.00471328
0.00491533
0.00510773
0.0050994
0.00203384
0.00206372
0.00210467
0.00215944
0.00222544
0.00228947
0.00233019
0.00233054
0.00229856
0.00226272
0.00226504
0.00235417
0.00256451
0.00289201
0.00328855
0.00369411
0.00406497
0.00438209
0.00466253
0.00485356
0.00216448
0.00217578
0.002189
0.00220027
0.00220284
0.00218401
0.00212979
0.00203489
0.00191254
0.00178596
0.00168328
0.00163159
0.00166597
0.00182546
0.00213121
0.00255802
0.00303109
0.00348788
0.00388708
0.0043166
0.0019736
0.00196981
0.00196007
0.00193552
0.00188741
0.00180508
0.00168378
0.00153076
0.00136412
0.00120602
0.00107378
0.000977519
0.000923165
0.000923229
0.00100275
0.00120688
0.00156311
0.00206454
0.00258257
0.0033063
0.00126722
0.00125667
0.0012347
0.00119446
0.00112951
0.00103468
0.000913684
0.000777898
0.00064473
0.000528463
0.000435812
0.000368058
0.000321936
0.000295623
0.000287167
0.000305346
0.000363633
0.000530285
0.000752329
0.00153142
0.000253835
0.000251519
0.000245775
0.000234359
0.000215772
0.000189088
0.000156413
0.000121752
8.98173e-05
6.41168e-05
4.57578e-05
3.33474e-05
2.55839e-05
2.10396e-05
1.86977e-05
1.82236e-05
1.75037e-05
2.67478e-05
1.93547e-05
0.000147258
4.37259e-05
4.2612e-05
4.1684e-05
4.00405e-05
3.81003e-05
3.61568e-05
3.36902e-05
3.20514e-05
3.11917e-05
3.13285e-05
3.2603e-05
3.36645e-05
3.50045e-05
3.59525e-05
3.69684e-05
3.74437e-05
3.81134e-05
3.85302e-05
3.91266e-05
3.9819e-05
2.96095e-05
1.29606e-05
2.53977e-05
3.28268e-05
3.44677e-05
3.48134e-05
3.26311e-05
2.7344e-05
2.30627e-05
2.16158e-05
2.11176e-05
2.55179e-05
2.99359e-05
3.29044e-05
3.51225e-05
3.71719e-05
3.81884e-05
3.93765e-05
3.98771e-05
4.08675e-05
0.000162673
6.60612e-05
0.000112192
0.000117606
0.000114499
0.000122996
0.000128082
0.000128517
0.000123689
0.000115864
0.000108398
0.000108221
0.000129457
0.000144678
0.000156127
0.000163905
0.000169491
0.000174715
0.00017752
0.000182138
0.000214512
0.000157008
0.00019499
0.000224554
0.000262773
0.000293807
0.000309882
0.000310294
0.000298168
0.000278302
0.000258174
0.00024396
0.000253287
0.000267832
0.000279907
0.000289547
0.000297038
0.000303308
0.000306922
0.000312539
0.000256608
0.000233484
0.000312171
0.000428484
0.000500318
0.000555102
0.000582234
0.000580076
0.000555394
0.000517573
0.000477866
0.000441117
0.000429944
0.000439108
0.000450718
0.000460735
0.000468388
0.000475322
0.000478824
0.00048469
0.000293908
0.000322614
0.000531816
0.000726048
0.000837781
0.000924166
0.000966063
0.000959513
0.000917342
0.000854454
0.000787904
0.000726663
0.000689081
0.000680744
0.000683045
0.000687928
0.000691957
0.000695271
0.000697452
0.000699732
0.000331055
0.000439052
0.000862973
0.00114104
0.00130331
0.00143109
0.00149012
0.00147748
0.00141132
0.00131463
0.00121306
0.00111897
0.00105052
0.00101443
0.000997589
0.000988086
0.000982245
0.000976592
0.000973836
0.000967487
0.000374867
0.000636819
0.00132973
0.00170315
0.001934
0.00211317
0.00219242
0.00216896
0.00207066
0.00192969
0.00178282
0.00164449
0.00153718
0.00146376
0.00141527
0.00138029
0.00135584
0.00133313
0.00132096
0.00129814
0.000432229
0.000925291
0.00187996
0.00239052
0.00274612
0.00300333
0.00311277
0.00307454
0.00293305
0.00273488
0.00252897
0.00233417
0.00217274
0.00204788
0.00195473
0.00188171
0.00182785
0.00177915
0.00175032
0.0017021
0.000498533
0.00132402
0.00245542
0.00313777
0.0036589
0.00403471
0.0042105
0.00417751
0.00399702
0.00373492
0.00345675
0.00319069
0.00295996
0.00277039
0.00261981
0.00249705
0.00240335
0.00231865
0.00226787
0.00218257
0.000548229
0.00174113
0.00302246
0.00387975
0.0045659
0.00506382
0.00531363
0.00530465
0.00510819
0.00480382
0.00446673
0.00413741
0.0038417
0.00358798
0.00337979
0.00320389
0.00306647
0.00294113
0.00286421
0.00273563
0.000597507
0.00213141
0.00353879
0.0045541
0.00538703
0.00598566
0.0062926
0.00630569
0.00610506
0.00578269
0.00541632
0.00505224
0.00471677
0.00442055
0.00416902
0.00395163
0.00377697
0.0036156
0.00351433
0.00334194
0.000625891
0.00245022
0.00394081
0.00508382
0.00602761
0.00669285
0.00703013
0.00705584
0.00686294
0.00654797
0.00618756
0.00582647
0.00548715
0.0051805
0.00491157
0.00467502
0.00447892
0.00429526
0.00417834
0.00396798
0.000633134
0.00262502
0.00413978
0.0053517
0.00634503
0.00702222
0.00735494
0.00738277
0.00721399
0.00694468
0.00664022
0.00633339
0.00604012
0.00576683
0.00552039
0.00529572
0.00510431
0.00491979
0.00480294
0.00456831
0.000609332
0.00261041
0.00401393
0.00517724
0.00611141
0.006722
0.00700783
0.00703509
0.00692086
0.00675169
0.00657175
0.00639196
0.00621484
0.00603944
0.00586963
0.00570455
0.00555608
0.00540327
0.00531294
0.00507298
0.00117421
0.0021744
0.0032485
0.00418971
0.00493824
0.00542834
0.0056702
0.00573407
0.00572851
0.00572336
0.00574067
0.00576901
0.00579281
0.00579697
0.00577951
0.00574036
0.0056915
0.00562066
0.00559657
0.00537049
)
;

boundaryField
{
    inlet
    {
        type            fixedValue;
        value           uniform 4.65e-05;
    }
    outlet
    {
        type            zeroGradient;
    }
    frontAndBack
    {
        type            empty;
    }
    noslipwall
    {
        type            zeroGradient;
    }
}


// ************************************************************************* //
