/*--------------------------------*- C++ -*----------------------------------*\
  =========                 |
  \\      /  F ield         | OpenFOAM: The Open Source CFD Toolbox
   \\    /   O peration     | Website:  https://openfoam.org
    \\  /    A nd           | Version:  7
     \\/     M anipulation  |
\*---------------------------------------------------------------------------*/
FoamFile
{
    version     2.0;
    format      ascii;
    class       volScalarField;
    location    "486";
    object      p2;
}
// * * * * * * * * * * * * * * * * * * * * * * * * * * * * * * * * * * * * * //

dimensions      [0 2 -2 0 0 0 0];

internalField   nonuniform List<scalar> 
900
(
-60.979
-96.0191
-120.817
-129.856
-135.319
-141.823
-150.24
-161.461
-173.903
-189.408
-60.928
-96.0112
-120.815
-129.855
-135.317
-141.823
-150.243
-161.449
-173.929
-189.242
-60.9264
-95.9985
-120.809
-129.851
-135.313
-141.818
-150.236
-161.409
-173.939
-188.371
-60.9432
-95.9826
-120.8
-129.844
-135.305
-141.803
-150.205
-161.312
-173.75
-187.302
-60.9638
-95.9649
-120.789
-129.834
-135.29
-141.769
-150.13
-161.084
-173.32
-185.868
-60.9876
-95.9458
-120.777
-129.821
-135.263
-141.703
-149.973
-160.648
-172.488
-183.813
-61.0179
-95.9269
-120.767
-129.805
-135.218
-141.579
-149.672
-159.876
-170.992
-180.865
-61.0568
-95.9067
-120.765
-129.793
-135.151
-141.362
-149.124
-158.554
-168.455
-176.564
-61.1032
-95.8823
-120.763
-129.78
-135.059
-141.028
-148.239
-156.511
-164.634
-170.617
-61.1554
-95.8541
-120.761
-129.757
-134.911
-140.502
-146.868
-153.566
-159.485
-163.229
-61.2498
-95.8005
-120.755
-129.694
-134.527
-139.149
-143.386
-146.485
-147.89
-147.657
-61.286
-95.7727
-120.743
-129.584
-133.911
-137.089
-138.635
-138.308
-136.651
-134.463
-61.2605
-95.7768
-120.733
-129.497
-133.462
-135.674
-135.635
-133.575
-130.529
-127.466
-61.2086
-95.7949
-120.725
-129.438
-133.173
-134.782
-133.791
-130.727
-126.916
-123.424
-61.1493
-95.8177
-120.718
-129.401
-132.997
-134.234
-132.661
-129.011
-124.801
-121.126
-61.0917
-95.8429
-120.714
-129.376
-132.89
-133.899
-131.97
-127.966
-123.512
-119.709
-61.0383
-95.8657
-120.715
-129.369
-132.845
-133.735
-131.62
-127.438
-122.872
-119.024
-60.9893
-95.8834
-120.728
-129.378
-132.834
-133.665
-131.461
-127.195
-122.576
-118.704
-60.9741
-95.8972
-120.737
-129.386
-132.833
-133.641
-131.402
-127.107
-122.472
-118.595
-61.1094
-95.9275
-120.741
-129.388
-132.833
-133.635
-131.388
-127.085
-122.447
-118.569
-146.549
-144.897
-142.118
-137.608
-130.531
-120.031
-105.68
-87.9479
-68.401
-49.3431
-32.8783
-20.1318
-11.1616
-5.37294
-1.94555
-0.0937533
0.749823
1.0119
0.775327
0.366509
-132.313
-129.998
-126.835
-122.478
-116.484
-108.412
-97.96
-85.1998
-70.7605
-55.8081
-41.6972
-29.5015
-19.7375
-12.4238
-7.25608
-3.81388
-1.66499
-0.466668
0.0405637
0.0847707
-124.854
-122.268
-118.984
-114.752
-109.285
-102.311
-93.6307
-83.224
-71.378
-58.7412
-46.2022
-34.6471
-24.7032
-16.6771
-10.557
-6.17761
-3.21275
-1.41924
-0.415552
-0.0956998
-120.637
-117.99
-114.727
-110.642
-105.515
-99.1487
-91.382
-82.1649
-71.6476
-60.2504
-48.6215
-37.5103
-27.5518
-19.182
-12.5417
-7.62375
-4.16757
-2.01549
-0.685361
-0.218659
-118.276
-115.602
-112.347
-108.338
-103.39
-97.3387
-90.0481
-81.4614
-71.6702
-60.9843
-49.9162
-39.1204
-29.2082
-20.6771
-13.7466
-8.51611
-4.75673
-2.38917
-0.841114
-0.296213
-116.813
-114.133
-110.898
-106.944
-102.105
-96.237
-89.2166
-80.9854
-71.6068
-61.3321
-50.5988
-40.0022
-30.1356
-21.5254
-14.4385
-9.03202
-5.10469
-2.61132
-0.953586
-0.34769
-116.116
-113.432
-110.203
-106.273
-101.489
-95.7144
-88.8313
-80.7809
-71.6123
-61.5473
-50.9849
-40.4891
-30.6428
-21.9875
-14.8152
-9.31308
-5.29581
-2.73252
-1.0236
-0.370179
-115.786
-113.101
-109.877
-105.962
-101.208
-95.4806
-88.6661
-80.704
-71.6371
-61.6728
-51.1919
-40.7432
-30.9051
-22.2255
-15.0097
-9.4585
-5.39573
-2.79607
-1.0632
-0.380054
-115.679
-112.994
-109.773
-105.866
-101.126
-95.4199
-88.6352
-80.7109
-71.6866
-61.7634
-51.3142
-40.8813
-31.0416
-22.346
-15.1062
-9.52904
-5.44305
-2.82506
-1.08058
-0.383107
-115.652
-112.967
-109.748
-105.845
-101.111
-95.4135
-88.6399
-80.7289
-71.7187
-61.8082
-51.3676
-40.9371
-31.0933
-22.389
-15.1381
-9.55065
-5.45552
-2.83159
-1.08282
-0.382341
-203.105
-209.282
-230.472
-239.455
-227.511
-194.709
-143.284
-86.2555
-37.638
-5.41221
11.5161
17.6274
17.7731
15.1268
11.7669
8.6266
6.0608
4.09791
2.25987
1.18526
-202.004
-207.96
-227.27
-235.97
-224.46
-192.557
-142.425
-86.5466
-38.5986
-6.51528
10.5624
16.9181
17.2857
14.8112
11.5697
8.50682
5.9901
4.05694
2.24003
1.16435
-200.798
-207.138
-223.936
-231.805
-220.567
-189.734
-141.34
-87.0092
-39.9481
-8.03713
9.2562
15.9523
16.6251
14.3856
11.3047
8.34646
5.89588
4.00252
2.21464
1.13651
-199.33
-205.806
-219.69
-226.48
-215.59
-186.08
-139.921
-87.6416
-41.7804
-10.1215
7.4528
14.6133
15.7111
13.8
10.9423
8.12855
5.76843
3.92945
2.18216
1.10112
-197.046
-203.452
-214.288
-219.634
-209.181
-181.366
-138.035
-88.42
-44.1701
-12.9097
4.98695
12.7477
14.4238
12.9746
10.4353
7.82736
5.59399
3.83067
2.14075
1.0574
-193.701
-199.742
-207.566
-211.077
-201.11
-175.387
-135.505
-89.2598
-47.1405
-16.5074
1.71395
10.2022
12.6212
11.7938
9.70413
7.39752
5.34959
3.69612
2.08788
1.00489
-189.041
-194.244
-199.268
-200.679
-191.19
-167.95
-132.157
-90.0619
-50.7074
-21.0205
-2.50813
6.8316
10.1755
10.1454
8.64894
6.75761
4.98171
3.49979
2.01569
0.943247
-182.66
-186.507
-189.075
-188.39
-179.312
-158.893
-127.767
-90.6062
-54.7493
-26.4546
-7.77209
2.51672
6.97711
7.94204
7.20697
5.85452
4.43524
3.18273
1.87209
0.858022
-174.431
-176.563
-177.064
-174.581
-165.87
-148.412
-122.277
-90.6227
-58.9578
-32.6027
-13.9941
-2.74539
2.98181
5.14008
5.34707
4.67986
3.71509
2.76477
1.65527
0.743724
-164.971
-165.418
-164.284
-160.519
-152.157
-137.387
-115.961
-89.8036
-62.7207
-38.8847
-20.797
-8.78912
-1.78165
1.69871
3.01636
3.18529
2.79918
2.23209
1.38752
0.622812
-210.575
-220.608
-240.946
-248.715
-235.271
-197.714
-139.153
-75.6549
-23.5666
8.48159
23.0844
26.22
23.7618
19.1007
14.3493
10.2744
7.12116
4.7618
2.67751
1.50997
-210.599
-220.571
-240.899
-248.699
-235.281
-197.743
-139.198
-75.7058
-23.6127
8.44584
23.0598
26.2047
23.7504
19.0914
14.3421
10.2691
7.11708
4.75892
2.67498
1.50828
-210.536
-220.467
-240.831
-248.689
-235.316
-197.83
-139.331
-75.8536
-23.7461
8.34127
22.9857
26.1573
23.7196
19.0695
14.3263
10.2578
7.10875
4.75319
2.67002
1.50508
-210.443
-220.334
-240.803
-248.73
-235.392
-197.98
-139.551
-76.0959
-23.9669
8.16492
22.8575
26.072
23.6668
19.0348
14.3027
10.2417
7.09715
4.74541
2.66346
1.50091
-210.354
-220.301
-240.856
-248.845
-235.516
-198.199
-139.853
-76.4262
-24.2666
7.9247
22.6815
25.9513
23.5894
18.985
14.2696
10.2197
7.08152
4.73508
2.65494
1.49554
-210.29
-220.403
-241.017
-249.04
-235.702
-198.511
-140.272
-76.8787
-24.6765
7.59516
22.4385
25.7818
23.4771
18.9125
14.222
10.1884
7.05974
4.72089
2.64347
1.48836
-210.288
-220.631
-241.333
-249.316
-235.968
-198.949
-140.847
-77.4995
-25.2394
7.13992
22.1007
25.5445
23.3173
18.8086
14.1542
10.1443
7.02942
4.70135
2.62801
1.47872
-210.412
-221.012
-241.849
-249.68
-236.334
-199.535
-141.609
-78.3256
-25.9937
6.52388
21.6404
25.2198
23.0973
18.6647
14.0602
10.0835
6.98806
4.67491
2.60756
1.46595
-210.752
-221.627
-242.577
-250.127
-236.799
-200.254
-142.541
-79.3485
-26.9452
5.73276
21.0416
24.7939
22.8067
18.4735
13.9349
10.0025
6.9334
4.64009
2.58127
1.44933
-211.38
-222.544
-243.458
-250.636
-237.347
-201.053
-143.565
-80.4951
-28.046
4.78981
20.3104
24.2655
22.4416
18.2308
13.7751
9.89893
6.86377
4.5957
2.54869
1.42821
-212.336
-223.65
-244.335
-251.14
-237.917
-201.848
-144.592
-81.6795
-29.2391
3.72496
19.4567
23.6353
21.999
17.9334
13.5782
9.77073
6.7781
4.54096
2.50998
1.40202
-213.378
-224.589
-244.889
-251.458
-238.332
-202.485
-145.508
-82.8397
-30.5128
2.52443
18.4577
22.8829
21.464
17.5715
13.3382
9.61458
6.67486
4.47499
2.46573
1.37012
-214.152
-224.585
-244.627
-251.211
-238.205
-202.623
-146.112
-83.9224
-31.9173
1.10448
17.2348
21.9498
20.7975
17.1214
13.0415
9.42293
6.55047
4.39599
2.41667
1.3315
-213.323
-223.103
-242.871
-249.793
-236.844
-201.666
-146.087
-84.903
-33.6072
-0.730019
15.6247
20.7207
19.9248
16.5375
12.6617
9.1811
6.39757
4.30031
2.36289
1.28444
-211.065
-216.752
-238.152
-246.209
-233.228
-198.773
-145.013
-85.8045
-35.85
-3.29518
13.3694
19.0153
18.7308
15.7496
12.158
8.86615
6.20402
4.18208
2.30211
1.2265
)
;

boundaryField
{
    inlet
    {
        type            zeroGradient;
    }
    outlet
    {
        type            fixedValue;
        value           uniform 0;
    }
    frontAndBack
    {
        type            empty;
    }
    noslipwall
    {
        type            zeroGradient;
    }
}


// ************************************************************************* //
