/*--------------------------------*- C++ -*----------------------------------*\
  =========                 |
  \\      /  F ield         | OpenFOAM: The Open Source CFD Toolbox
   \\    /   O peration     | Website:  https://openfoam.org
    \\  /    A nd           | Version:  7
     \\/     M anipulation  |
\*---------------------------------------------------------------------------*/
FoamFile
{
    version     2.0;
    format      ascii;
    class       volScalarField;
    location    "486";
    object      p3;
}
// * * * * * * * * * * * * * * * * * * * * * * * * * * * * * * * * * * * * * //

dimensions      [0 2 -2 0 0 0 0];

internalField   nonuniform List<scalar> 
900
(
-70.4081
-109.474
-137.17
-147.29
-153.413
-160.724
-170.217
-182.902
-196.994
-214.528
-70.3503
-109.465
-137.168
-147.288
-153.411
-160.723
-170.22
-182.889
-197.023
-214.348
-70.3482
-109.451
-137.162
-147.283
-153.407
-160.718
-170.213
-182.843
-197.034
-213.373
-70.367
-109.433
-137.152
-147.276
-153.397
-160.701
-170.178
-182.733
-196.822
-212.175
-70.3899
-109.413
-137.14
-147.265
-153.38
-160.663
-170.092
-182.476
-196.337
-210.564
-70.4165
-109.392
-137.126
-147.251
-153.351
-160.588
-169.915
-181.983
-195.4
-208.251
-70.4504
-109.371
-137.115
-147.232
-153.3
-160.449
-169.576
-181.112
-193.71
-204.923
-70.4937
-109.349
-137.113
-147.218
-153.225
-160.204
-168.958
-179.619
-190.845
-200.063
-70.5456
-109.322
-137.11
-147.204
-153.121
-159.827
-167.96
-177.312
-186.527
-193.335
-70.6038
-109.29
-137.108
-147.178
-152.954
-159.234
-166.411
-173.984
-180.702
-184.969
-70.7092
-109.231
-137.101
-147.107
-152.523
-157.707
-162.477
-165.975
-167.566
-167.307
-70.7495
-109.2
-137.088
-146.983
-151.828
-155.38
-157.101
-156.714
-154.829
-152.344
-70.721
-109.205
-137.076
-146.884
-151.32
-153.781
-153.707
-151.355
-147.893
-144.414
-70.663
-109.225
-137.067
-146.819
-150.994
-152.772
-151.621
-148.132
-143.801
-139.834
-70.5968
-109.25
-137.06
-146.777
-150.796
-152.154
-150.344
-146.191
-141.407
-137.232
-70.5325
-109.278
-137.055
-146.748
-150.675
-151.775
-149.564
-145.01
-139.95
-135.631
-70.4728
-109.304
-137.056
-146.74
-150.623
-151.59
-149.168
-144.413
-139.226
-134.854
-70.418
-109.323
-137.07
-146.751
-150.611
-151.511
-148.988
-144.138
-138.891
-134.492
-70.4015
-109.339
-137.08
-146.759
-150.61
-151.483
-148.921
-144.038
-138.773
-134.369
-70.5551
-109.373
-137.085
-146.762
-150.61
-151.477
-148.904
-144.012
-138.743
-134.338
-166.055
-164.185
-161.035
-155.917
-147.875
-135.934
-119.608
-99.4388
-77.2235
-55.5991
-36.9612
-22.5737
-12.4802
-5.98685
-2.15448
-0.0912916
0.844801
1.13391
0.867191
0.409593
-149.904
-147.277
-143.686
-138.738
-131.928
-122.753
-110.873
-96.3701
-79.9678
-63.0003
-47.0127
-33.2208
-22.2004
-13.9605
-8.14765
-4.28119
-1.87002
-0.525882
0.0434768
0.0940498
-141.446
-138.51
-134.779
-129.972
-123.76
-115.836
-105.973
-94.151
-80.6991
-66.3599
-52.1475
-39.0682
-27.8292
-18.771
-11.8732
-6.9436
-3.61014
-1.5952
-0.46795
-0.108146
-136.668
-133.661
-129.954
-125.313
-119.49
-112.257
-103.433
-92.9641
-81.0222
-68.0888
-54.9041
-42.3203
-31.0566
-21.6023
-14.1118
-8.57139
-4.68287
-2.26399
-0.770236
-0.245858
-133.995
-130.958
-127.26
-122.705
-117.084
-110.21
-101.928
-92.1747
-81.0572
-68.9301
-56.3787
-44.1481
-32.9319
-23.2912
-15.47
-9.57524
-5.34446
-2.68291
-0.944603
-0.332793
-132.34
-129.296
-125.621
-121.128
-115.631
-108.965
-100.989
-91.6402
-80.9908
-69.3294
-57.156
-45.1489
-33.9817
-24.249
-16.2496
-10.1554
-5.73505
-2.93196
-1.07034
-0.390566
-131.551
-128.502
-124.834
-120.369
-114.934
-108.373
-100.554
-91.4103
-80.9993
-69.5754
-57.595
-45.701
-34.5558
-24.7709
-16.6741
-10.4716
-5.9497
-3.06796
-1.14874
-0.415928
-131.177
-128.126
-124.463
-120.016
-114.615
-108.108
-100.367
-91.3239
-81.0284
-69.7185
-57.8303
-45.9893
-34.8527
-25.0398
-16.8935
-10.6353
-6.06202
-3.13935
-1.19312
-0.42709
-131.056
-128.005
-124.346
-119.907
-114.522
-108.04
-100.332
-91.3317
-81.0849
-69.8215
-57.9691
-46.1458
-35.0071
-25.1758
-17.0023
-10.7149
-6.11535
-3.17197
-1.21263
-0.430573
-131.024
-127.974
-124.316
-119.882
-114.504
-108.032
-100.337
-91.3515
-81.1204
-69.8724
-58.0297
-46.2093
-35.0656
-25.2242
-17.0383
-10.7391
-6.12951
-3.17956
-1.21524
-0.429785
-230.066
-237.422
-261.944
-272.17
-258.577
-221.143
-162.321
-97.1385
-41.7664
-5.30658
13.6523
20.3228
20.2902
17.1737
13.3021
9.71683
6.8085
4.59551
2.52958
1.3267
-228.844
-235.921
-258.272
-268.181
-255.077
-218.672
-161.342
-97.4854
-42.8807
-6.57761
12.5587
19.5131
19.736
16.816
13.0793
9.5818
6.72893
4.54944
2.50734
1.30318
-227.5
-234.974
-254.431
-263.41
-250.612
-215.433
-160.105
-98.0318
-44.4424
-8.32828
11.0625
18.4114
18.9854
16.3338
12.7799
9.4011
6.62292
4.48828
2.47889
1.27189
-225.859
-233.443
-249.541
-257.307
-244.901
-211.24
-158.487
-98.7757
-46.5587
-10.722
8.99955
16.8858
17.9476
15.6706
12.3706
9.15561
6.47956
4.40616
2.44249
1.23214
-223.294
-230.75
-243.329
-249.466
-237.556
-205.835
-156.338
-99.6892
-49.3139
-13.9191
6.18301
14.7629
16.4875
14.7365
11.7982
8.81642
6.28338
4.29517
2.39608
1.18306
-219.52
-226.518
-235.616
-239.672
-228.317
-198.988
-153.455
-100.677
-52.7348
-18.0401
2.44885
11.8698
14.4453
13.4019
10.9736
8.33266
6.00866
4.14403
2.33681
1.12413
-214.251
-220.257
-226.114
-227.781
-216.975
-190.485
-149.645
-101.627
-56.84
-23.2053
-2.36408
8.04184
11.6769
11.5405
9.78496
7.61325
5.59553
3.92361
2.25585
1.055
-207.024
-211.458
-214.473
-213.748
-203.417
-180.149
-144.655
-102.289
-61.4905
-29.4205
-8.36032
3.14452
8.05845
9.05411
8.16163
6.59886
4.98258
3.56824
2.09503
0.959517
-197.698
-200.161
-200.786
-198.002
-188.096
-168.21
-138.424
-102.357
-66.3348
-36.4504
-15.446
-2.82719
3.53847
5.89209
6.06768
5.27934
4.17501
3.10006
1.85263
0.831739
-186.971
-187.504
-186.245
-181.989
-172.481
-155.664
-131.259
-101.472
-70.6712
-43.6352
-23.1952
-9.68919
-1.85417
2.00559
3.44146
3.59899
3.14708
2.50295
1.55303
0.696512
-238.556
-250.319
-273.891
-282.758
-267.495
-224.602
-157.563
-84.9145
-25.5606
10.6496
26.8934
30.1176
27.0918
21.6754
16.2199
11.5745
8.00282
5.34315
2.99921
1.69293
-238.578
-250.276
-273.837
-282.74
-267.506
-224.636
-157.616
-84.9745
-25.6148
10.6078
26.8647
30.0996
27.0783
21.6643
16.2114
11.5682
7.99798
5.33976
2.99622
1.69095
-238.503
-250.152
-273.761
-282.732
-267.546
-224.736
-157.769
-85.1446
-25.7683
10.4878
26.7797
30.0453
27.043
21.6391
16.1932
11.5552
7.98835
5.33314
2.9905
1.68725
-238.396
-250.003
-273.741
-282.784
-267.633
-224.908
-158.019
-85.4203
-26.0189
10.2878
26.6349
29.9493
26.9835
21.6001
16.1667
11.5371
7.97526
5.32433
2.98306
1.68252
-238.296
-249.979
-273.816
-282.92
-267.774
-225.158
-158.365
-85.7973
-26.3603
10.0148
26.4356
29.8129
26.8964
21.5441
16.1294
11.5122
7.95762
5.31266
2.9734
1.67643
-238.226
-250.113
-274.014
-283.144
-267.985
-225.515
-158.844
-86.3153
-26.8285
9.63911
26.1594
29.6208
26.7692
21.4622
16.0757
11.4769
7.93301
5.2966
2.96041
1.66828
-238.232
-250.392
-274.389
-283.46
-268.287
-226.016
-159.502
-87.0261
-27.472
9.11972
25.7749
29.3515
26.5883
21.3447
15.9991
11.4271
7.89876
5.27451
2.94293
1.65736
-238.388
-250.849
-274.99
-283.872
-268.703
-226.687
-160.376
-87.9722
-28.3343
8.41692
25.2509
28.9829
26.3392
21.182
15.893
11.3586
7.85212
5.24466
2.91985
1.64291
-238.797
-251.578
-275.829
-284.377
-269.234
-227.511
-161.443
-89.1437
-29.4223
7.51406
24.5691
28.4994
26.0102
20.9658
15.7516
11.2674
7.79054
5.2054
2.8902
1.62414
-239.543
-252.65
-276.839
-284.951
-269.859
-228.425
-162.617
-90.4576
-30.682
6.43693
23.7359
27.8991
25.5966
20.6914
15.5713
11.1507
7.71214
5.15542
2.85353
1.6003
-240.666
-253.929
-277.834
-285.518
-270.51
-229.336
-163.795
-91.8161
-32.0491
5.21892
22.7618
27.1823
25.0948
20.355
15.349
11.0062
7.61569
5.09381
2.81002
1.57077
-241.876
-255.002
-278.454
-285.875
-270.985
-230.067
-164.847
-93.1494
-33.512
3.84286
21.6197
26.3253
24.4876
19.9454
15.078
10.8303
7.4995
5.01957
2.76035
1.53482
-242.754
-254.974
-278.138
-285.592
-270.838
-230.226
-165.543
-94.398
-35.1306
2.21068
20.2187
25.2611
23.7303
19.4355
14.7429
10.6144
7.35953
4.93071
2.70531
1.49131
-241.769
-253.238
-276.121
-283.978
-269.277
-229.129
-165.519
-95.5367
-37.0858
0.0965129
18.3707
23.8573
22.738
18.7736
14.3137
10.3419
7.18749
4.8231
2.64503
1.43833
-239.133
-245.95
-270.735
-279.897
-265.133
-225.807
-164.294
-96.5955
-39.6883
-2.86342
15.7805
21.9086
21.3797
17.8801
13.7443
9.98694
6.96973
4.69016
2.57694
1.37312
)
;

boundaryField
{
    inlet
    {
        type            zeroGradient;
    }
    outlet
    {
        type            fixedValue;
        value           uniform 0;
    }
    frontAndBack
    {
        type            empty;
    }
    noslipwall
    {
        type            zeroGradient;
    }
}


// ************************************************************************* //
