/*--------------------------------*- C++ -*----------------------------------*\
  =========                 |
  \\      /  F ield         | OpenFOAM: The Open Source CFD Toolbox
   \\    /   O peration     | Website:  https://openfoam.org
    \\  /    A nd           | Version:  7
     \\/     M anipulation  |
\*---------------------------------------------------------------------------*/
FoamFile
{
    version     2.0;
    format      ascii;
    class       volScalarField;
    location    "486";
    object      p4;
}
// * * * * * * * * * * * * * * * * * * * * * * * * * * * * * * * * * * * * * //

dimensions      [0 2 -2 0 0 0 0];

internalField   nonuniform List<scalar> 
900
(
-80.5688
-123.855
-154.595
-165.85
-172.669
-180.832
-191.463
-205.701
-221.544
-241.219
-80.5037
-123.845
-154.593
-165.848
-172.667
-180.831
-191.467
-205.686
-221.575
-241.028
-80.5011
-123.829
-154.585
-165.843
-172.662
-180.825
-191.459
-205.635
-221.588
-239.947
-80.5219
-123.81
-154.575
-165.834
-172.652
-180.807
-191.42
-205.511
-221.352
-238.615
-80.5474
-123.788
-154.561
-165.823
-172.633
-180.764
-191.325
-205.222
-220.81
-236.822
-80.5768
-123.764
-154.546
-165.806
-172.6
-180.68
-191.126
-204.67
-219.761
-234.237
-80.6144
-123.741
-154.534
-165.786
-172.543
-180.524
-190.746
-203.693
-217.868
-230.51
-80.6625
-123.717
-154.531
-165.77
-172.459
-180.25
-190.054
-202.02
-214.656
-225.058
-80.72
-123.687
-154.529
-165.754
-172.343
-179.827
-188.936
-199.434
-209.812
-217.503
-80.7846
-123.652
-154.525
-165.725
-172.157
-179.163
-187.2
-195.702
-203.271
-208.098
-80.9015
-123.587
-154.518
-165.646
-171.674
-177.451
-182.785
-186.706
-188.498
-188.212
-80.9463
-123.553
-154.503
-165.507
-170.896
-174.841
-176.745
-176.294
-174.165
-171.366
-80.9146
-123.558
-154.49
-165.396
-170.327
-173.046
-172.933
-170.27
-166.363
-162.441
-80.8502
-123.581
-154.48
-165.323
-169.961
-171.915
-170.591
-166.648
-161.763
-157.29
-80.7767
-123.609
-154.471
-165.275
-169.739
-171.221
-169.158
-164.468
-159.073
-154.365
-80.7053
-123.64
-154.466
-165.244
-169.604
-170.798
-168.283
-163.143
-157.438
-152.568
-80.6391
-123.668
-154.467
-165.235
-169.546
-170.59
-167.839
-162.473
-156.624
-151.695
-80.5783
-123.689
-154.483
-165.246
-169.532
-170.501
-167.636
-162.163
-156.247
-151.286
-80.5604
-123.706
-154.494
-165.255
-169.53
-170.469
-167.561
-162.051
-156.114
-151.149
-80.7334
-123.744
-154.499
-165.258
-169.53
-170.462
-167.541
-162.02
-156.079
-151.112
-186.808
-184.706
-181.163
-175.397
-166.326
-152.846
-134.411
-111.642
-86.5815
-62.225
-41.2791
-25.153
-13.8724
-6.63597
-2.37715
-0.0914333
0.94214
1.26008
0.962358
0.454397
-168.618
-165.657
-161.611
-156.033
-148.353
-138.003
-124.598
-108.238
-89.743
-70.6301
-52.6472
-37.161
-24.8091
-15.5888
-9.09356
-4.77838
-2.0897
-0.590974
0.044868
0.103214
-159.096
-155.785
-151.579
-146.159
-139.154
-130.217
-119.093
-105.762
-90.5989
-74.4472
-58.4549
-43.7562
-31.143
-20.9906
-13.269
-7.75681
-4.03308
-1.78351
-0.524873
-0.121882
-153.72
-150.33
-146.15
-140.917
-134.35
-126.194
-116.244
-104.44
-90.9808
-76.4118
-61.5717
-47.4227
-34.773
-24.1683
-15.7765
-9.57671
-5.23032
-2.5288
-0.861381
-0.27514
-150.715
-147.291
-143.121
-137.985
-131.646
-123.895
-114.556
-103.561
-91.0301
-77.3682
-63.2383
-49.4821
-36.8809
-26.0625
-17.2969
-10.6984
-5.96837
-2.99542
-1.05535
-0.371962
-148.858
-145.424
-141.281
-136.214
-130.015
-122.498
-113.505
-102.964
-90.9611
-77.8228
-64.1168
-50.6096
-38.0606
-27.1366
-18.1694
-11.3464
-6.40395
-3.27281
-1.19503
-0.436376
-147.97
-144.532
-140.395
-135.361
-129.232
-121.833
-113.017
-102.707
-90.9728
-78.1018
-64.6123
-51.2312
-38.7057
-27.7217
-18.6445
-11.6997
-6.64342
-3.42444
-1.28227
-0.464779
-147.549
-144.108
-139.978
-134.963
-128.872
-121.535
-112.807
-102.611
-91.0066
-78.2638
-64.8777
-51.5559
-39.0394
-28.0234
-18.8902
-11.8828
-6.76884
-3.50409
-1.33168
-0.477311
-147.413
-143.973
-139.846
-134.841
-128.768
-121.458
-112.767
-102.62
-91.0707
-78.38
-65.034
-51.7319
-39.2127
-28.1759
-19.0122
-11.972
-6.82852
-3.54055
-1.35344
-0.481255
-147.376
-143.936
-139.811
-134.811
-128.748
-121.449
-112.772
-102.641
-91.1097
-78.4373
-65.1024
-51.8035
-39.2784
-28.2299
-19.0524
-11.999
-6.84449
-3.54927
-1.35645
-0.480452
-258.713
-267.42
-295.569
-307.08
-291.719
-249.321
-182.56
-108.643
-46.0587
-5.11192
15.9787
23.2143
22.9713
19.3445
14.9252
10.8666
7.59486
5.1178
2.81208
1.47533
-257.368
-265.725
-291.388
-302.553
-287.738
-246.509
-181.453
-109.051
-47.3395
-6.56386
14.7347
22.2973
22.346
18.942
14.6751
10.7154
7.50591
5.06636
2.78731
1.44906
-255.885
-264.639
-286.997
-297.132
-282.656
-242.822
-180.055
-109.69
-49.1312
-8.56067
13.0348
21.0506
21.4997
18.3997
14.3392
10.5131
7.38744
4.99807
2.75563
1.41412
-254.067
-262.889
-281.407
-290.195
-276.158
-238.05
-178.226
-110.556
-51.5546
-11.2868
10.694
19.3257
20.3302
17.6542
13.8803
10.2384
7.22725
4.9064
2.7151
1.36976
-251.209
-259.828
-274.317
-281.284
-267.806
-231.903
-175.796
-111.618
-54.7041
-14.9227
7.50239
16.9287
18.6864
16.6048
13.2387
9.85904
7.0081
4.78251
2.66342
1.31501
-246.986
-255.033
-265.53
-270.162
-257.314
-224.125
-172.538
-112.768
-58.611
-19.6047
3.27533
13.6653
16.3899
15.1071
12.3152
9.31823
6.70134
4.61385
2.59739
1.24929
-241.073
-247.955
-254.729
-256.671
-244.449
-214.48
-168.235
-113.881
-63.2965
-25.4689
-2.1687
9.3506
13.2791
13.0204
10.9854
8.51483
6.24046
4.36802
2.50718
1.17224
-232.948
-238.023
-241.531
-240.767
-229.091
-202.775
-162.608
-114.676
-68.6031
-32.5208
-8.94669
3.83356
9.21497
10.2343
9.17033
7.38289
5.55739
3.97226
2.32822
1.06592
-222.457
-225.28
-226.049
-222.948
-211.762
-189.278
-155.588
-114.803
-74.1327
-40.4955
-16.9542
-2.89319
4.13826
6.691
6.82894
5.9104
4.65764
3.45118
2.0589
0.92393
-210.381
-211.01
-209.624
-204.846
-194.114
-175.109
-147.519
-113.854
-79.088
-48.6475
-25.7138
-10.6263
-1.92244
2.33284
3.89007
4.03372
3.51151
2.78614
1.72579
0.773608
-268.286
-281.991
-309.094
-319.095
-301.886
-253.269
-177.123
-94.6637
-27.5496
13.062
31.0133
34.2929
30.6384
24.4066
18.1988
12.9468
8.93103
5.95412
3.33673
1.88564
-268.306
-281.941
-309.03
-319.076
-301.898
-253.308
-177.184
-94.7334
-27.6126
13.0136
30.9801
34.2719
30.6225
24.3937
18.1889
12.9394
8.92538
5.95017
3.33324
1.88333
-268.216
-281.796
-308.948
-319.069
-301.944
-253.421
-177.358
-94.9275
-27.7876
12.877
30.8835
34.2102
30.5823
24.365
18.1681
12.9246
8.91438
5.94262
3.32669
1.87909
-268.094
-281.631
-308.938
-319.134
-302.042
-253.616
-177.642
-95.239
-28.0702
12.652
30.7211
34.1028
30.5159
24.3214
18.1385
12.9043
8.8997
5.93272
3.31832
1.87376
-267.982
-281.619
-309.038
-319.293
-302.201
-253.9
-178.034
-95.6661
-28.4561
12.3439
30.497
33.9498
30.4182
24.2588
18.0968
12.8764
8.87991
5.91959
3.30745
1.86691
-267.907
-281.79
-309.278
-319.548
-302.438
-254.306
-178.578
-96.2545
-28.9869
11.9187
30.1853
33.7335
30.2754
24.1668
18.0366
12.8368
8.85227
5.90155
3.29283
1.85773
-267.923
-282.13
-309.718
-319.904
-302.779
-254.875
-179.327
-97.062
-29.7167
11.3307
29.7509
33.4302
30.072
24.0349
17.9506
12.781
8.81385
5.87674
3.2732
1.84544
-268.118
-282.675
-310.413
-320.366
-303.248
-255.638
-180.319
-98.1369
-30.6947
10.5351
29.159
33.0149
29.792
23.8521
17.8316
12.7043
8.76161
5.84327
3.24731
1.8292
-268.608
-283.532
-311.373
-320.931
-303.848
-256.573
-181.532
-99.4682
-31.929
9.51266
28.3887
32.4699
29.4221
23.6095
17.6732
12.6022
8.69269
5.7993
3.21411
1.80814
-269.489
-284.776
-312.518
-321.57
-304.557
-257.612
-182.867
-100.962
-33.3592
8.29184
27.4464
31.793
28.957
23.3015
17.471
12.4715
8.60498
5.7434
3.17311
1.78141
-270.799
-286.244
-313.64
-322.203
-305.295
-258.647
-184.207
-102.508
-34.9132
6.90964
26.3433
30.9839
28.3922
22.9237
17.2219
12.3099
8.49714
5.67451
3.12453
1.74833
-272.195
-287.46
-314.327
-322.601
-305.833
-259.479
-185.406
-104.027
-36.5797
5.34509
25.048
30.0154
27.7082
22.4634
16.9181
12.113
8.36724
5.59154
3.06913
1.70809
-273.184
-287.401
-313.949
-322.28
-305.665
-259.662
-186.202
-105.455
-38.4295
3.48453
23.4559
28.811
26.8544
21.89
16.5422
11.8714
8.21079
5.49224
3.00778
1.65941
-272.021
-285.383
-311.653
-320.459
-303.89
-258.414
-186.181
-106.766
-40.6724
1.06886
21.3521
27.2205
25.7345
21.1453
16.0606
11.5663
8.01851
5.37202
2.94063
1.60014
-268.961
-277.083
-305.553
-315.85
-299.177
-254.631
-184.794
-107.997
-43.6654
-2.31697
18.4019
25.0116
24.2013
20.1397
15.4216
11.1691
7.77514
5.22354
2.86483
1.52723
)
;

boundaryField
{
    inlet
    {
        type            zeroGradient;
    }
    outlet
    {
        type            fixedValue;
        value           uniform 0;
    }
    frontAndBack
    {
        type            empty;
    }
    noslipwall
    {
        type            zeroGradient;
    }
}


// ************************************************************************* //
