/*--------------------------------*- C++ -*----------------------------------*\
  =========                 |
  \\      /  F ield         | OpenFOAM: The Open Source CFD Toolbox
   \\    /   O peration     | Website:  https://openfoam.org
    \\  /    A nd           | Version:  7
     \\/     M anipulation  |
\*---------------------------------------------------------------------------*/
FoamFile
{
    version     2.0;
    format      ascii;
    class       surfaceScalarField;
    location    "486";
    object      phi;
}
// * * * * * * * * * * * * * * * * * * * * * * * * * * * * * * * * * * * * * //

dimensions      [0 3 -1 0 0 0 0];

internalField   nonuniform List<scalar> 
1735
(
7.18169e-06
4.37671e-06
6.68588e-06
4.95807e-07
6.58235e-06
1.03534e-07
6.53706e-06
4.52899e-08
6.52934e-06
7.72221e-09
6.56544e-06
-3.61052e-08
6.64241e-06
-7.69671e-08
6.72461e-06
-8.22043e-08
6.90365e-06
-1.79033e-07
-7.47536e-08
6.9784e-06
1.08491e-05
8.45585e-06
1.01315e-05
1.21342e-06
9.95904e-06
2.75977e-07
9.88205e-06
1.2228e-07
9.86212e-06
2.7652e-08
9.90815e-06
-8.21348e-08
9.99968e-06
-1.68503e-07
1.01338e-05
-2.16286e-07
1.03072e-05
-3.52441e-07
-2.7622e-07
1.05086e-05
1.56597e-05
1.20767e-05
1.46451e-05
2.22807e-06
1.43403e-05
5.80787e-07
1.42032e-05
2.59331e-07
1.41576e-05
7.33243e-08
1.4205e-05
-1.29517e-07
1.43143e-05
-2.77816e-07
1.44838e-05
-3.85854e-07
1.46938e-05
-5.62451e-07
-4.98098e-07
1.49157e-05
2.19763e-05
1.50022e-05
2.06416e-05
3.56273e-06
2.01347e-05
1.08774e-06
1.98992e-05
4.94813e-07
1.98091e-05
1.63415e-07
1.98462e-05
-1.66634e-07
1.99741e-05
-4.05731e-07
2.01731e-05
-5.84796e-07
2.04228e-05
-8.12151e-07
-7.52744e-07
2.06774e-05
3.0339e-05
1.68251e-05
2.87714e-05
5.13039e-06
2.7997e-05
1.86208e-06
2.7611e-05
8.80827e-07
2.74492e-05
3.25191e-07
2.74603e-05
-1.7773e-07
2.7604e-05
-5.49355e-07
2.78341e-05
-8.14955e-07
2.8118e-05
-1.09605e-06
-1.0417e-06
2.8407e-05
4.12976e-05
1.70662e-05
3.97634e-05
6.66459e-06
3.87154e-05
2.91009e-06
3.81293e-05
1.46696e-06
3.78623e-05
5.92186e-07
3.78284e-05
-1.43856e-07
3.79788e-05
-6.99776e-07
3.82417e-05
-1.07778e-06
3.85512e-05
-1.40559e-06
-1.35483e-06
3.88643e-05
5.47146e-05
1.60009e-05
5.41665e-05
7.21271e-06
5.31608e-05
3.91576e-06
5.24138e-05
2.21397e-06
5.20301e-05
9.75841e-07
5.19419e-05
-5.56208e-08
5.20907e-05
-8.48615e-07
5.23816e-05
-1.36866e-06
5.27049e-05
-1.72882e-06
-1.67182e-06
5.30219e-05
7.07239e-05
1.45678e-05
7.14026e-05
6.53394e-06
7.14236e-05
3.89482e-06
7.11446e-05
2.49295e-06
7.09083e-05
1.21214e-06
7.08605e-05
-7.87658e-09
7.10277e-05
-1.01581e-06
7.13313e-05
-1.67226e-06
7.16365e-05
-2.03397e-06
-1.94725e-06
7.19119e-05
9.12798e-05
1.27805e-05
9.2205e-05
5.60868e-06
9.27513e-05
3.34856e-06
9.30932e-05
2.15102e-06
9.3352e-05
9.53416e-07
9.36397e-05
-2.95662e-07
9.40107e-05
-1.38674e-06
9.44144e-05
-2.07597e-06
9.47303e-05
-2.34993e-06
-2.17355e-06
9.49566e-05
0.000117921
1.04432e-05
0.000119081
4.4487e-06
0.000119776
2.65383e-06
0.000120261
1.66622e-06
0.000120653
5.61333e-07
0.000121051
-6.93436e-07
0.000121481
-1.81684e-06
0.00012188
-2.47523e-06
0.000122141
-2.61089e-06
-2.3102e-06
0.000122278
0.000353915
3.27986e-06
0.000357246
1.11781e-06
0.000359309
5.90448e-07
0.000360741
2.34614e-07
0.0003618
-4.97451e-07
0.000362681
-1.57475e-06
0.000363358
-2.49396e-06
0.000363716
-2.83256e-06
0.00036373
-2.62574e-06
-2.13601e-06
0.000363556
0.000274038
-2.28055e-06
0.000276603
-1.4471e-06
0.0002782
-1.00643e-06
0.000279275
-8.41301e-07
0.000279939
-1.16119e-06
0.00028027
-1.90572e-06
0.000280303
-2.52657e-06
0.000280112
-2.64158e-06
0.000279807
-2.3214e-06
-1.81826e-06
0.00027949
0.000212165
-6.57375e-06
0.000214166
-3.44759e-06
0.000215407
-2.24712e-06
0.000216218
-1.65264e-06
0.000216644
-1.58684e-06
0.000216732
-1.99428e-06
0.000216562
-2.35589e-06
0.000216247
-2.32729e-06
0.000215899
-1.97338e-06
-1.50824e-06
0.000215589
0.000164255
-9.8803e-06
0.000165822
-5.01545e-06
0.00016679
-3.21456e-06
0.000167408
-2.27055e-06
0.000167695
-1.874e-06
0.000167686
-1.9855e-06
0.000167466
-2.13587e-06
0.00016715
-2.01171e-06
0.000166836
-1.65927e-06
-1.24727e-06
0.000166575
0.000127163
-1.2427e-05
0.000128403
-6.25536e-06
0.000129149
-3.961e-06
0.000129582
-2.70377e-06
0.000129729
-2.0207e-06
0.000129625
-1.88181e-06
0.000129356
-1.86624e-06
0.00012903
-1.68557e-06
0.000128729
-1.35884e-06
-1.00753e-06
0.00012849
9.8501e-05
-1.44422e-05
9.91958e-05
-6.95016e-06
9.92073e-05
-3.97256e-06
9.89309e-05
-2.42733e-06
9.85473e-05
-1.63712e-06
9.80885e-05
-1.42304e-06
9.75955e-05
-1.37324e-06
9.71369e-05
-1.22689e-06
9.67607e-05
-9.82696e-07
-7.25542e-07
9.64787e-05
7.5395e-05
-1.51318e-05
7.42841e-05
-5.83926e-06
7.30838e-05
-2.77219e-06
7.22226e-05
-1.56613e-06
7.16127e-05
-1.02723e-06
7.10908e-05
-9.01135e-07
7.06033e-05
-8.85812e-07
7.0176e-05
-7.9956e-07
6.98361e-05
-6.42819e-07
-4.7513e-07
6.95857e-05
5.54397e-05
-1.27298e-05
5.33986e-05
-3.79813e-06
5.22224e-05
-1.59596e-06
5.15268e-05
-8.70524e-07
5.10632e-05
-5.63711e-07
5.06644e-05
-5.02264e-07
5.02827e-05
-5.04165e-07
4.99431e-05
-4.59932e-07
4.96715e-05
-3.71207e-07
-2.74711e-07
4.9471e-05
3.94495e-05
-7.39461e-06
3.73647e-05
-1.71329e-06
3.64499e-05
-6.81199e-07
3.59431e-05
-3.63731e-07
3.5615e-05
-2.35606e-07
3.53298e-05
-2.17031e-07
3.50483e-05
-2.22735e-07
3.47929e-05
-2.04473e-07
3.45869e-05
-1.65272e-07
-1.22302e-07
3.44345e-05
2.72806e-05
2.55673e-05
2.48861e-05
2.45224e-05
2.42868e-05
2.40697e-05
2.3847e-05
2.36425e-05
2.34772e-05
2.33549e-05
0.000363314
-1.68205e-06
1.92419e-06
0.000362884
-2.11158e-06
2.54134e-06
0.00036217
-2.66312e-06
3.37786e-06
0.000361032
-3.36425e-06
4.50147e-06
0.000359309
-4.23419e-06
5.95737e-06
0.000356886
-5.25889e-06
7.68226e-06
0.000353784
-6.36414e-06
9.46579e-06
0.000350215
-7.40632e-06
1.0975e-05
0.000346552
-8.1988e-06
1.18619e-05
0.000343186
-8.57697e-06
1.19434e-05
0.00034039
-8.47209e-06
1.12676e-05
0.000338269
-7.91496e-06
1.00367e-05
0.000336791
-7.02634e-06
8.50418e-06
0.000335839
-5.93449e-06
6.88658e-06
0.000335276
-4.81777e-06
5.38057e-06
0.000334975
-3.73767e-06
4.03912e-06
0.000334843
-2.87266e-06
3.00388e-06
0.000334835
-2.1043e-06
2.1128e-06
0.000334885
-1.71535e-06
1.66496e-06
-1.40442e-06
1.23808e-06
0.000279201
-1.39368e-06
0.000278799
-1.70959e-06
0.00027824
-2.10418e-06
0.000277469
-2.59234e-06
0.000276418
-3.18393e-06
0.000275033
-3.87383e-06
0.000273298
-4.629e-06
0.000271269
-5.3769e-06
0.000269081
-6.0112e-06
0.000266917
-6.41302e-06
0.000264946
-6.50125e-06
0.000263279
-6.24764e-06
0.00026196
-5.70769e-06
0.000260977
-4.95112e-06
0.000260286
-4.1267e-06
0.000259826
-3.27782e-06
0.000259547
-2.5935e-06
0.000259399
-1.95696e-06
0.000259348
-1.6634e-06
-1.42481e-06
0.000215333
-1.13785e-06
0.000215002
-1.37839e-06
0.000214573
-1.67463e-06
0.000214017
-2.0362e-06
0.000213302
-2.46966e-06
0.000212401
-2.97272e-06
0.0002113
-3.52749e-06
0.000210013
-4.09072e-06
0.000208597
-4.59508e-06
0.000207139
-4.95423e-06
0.000205736
-5.0987e-06
0.000204473
-4.98435e-06
0.000203404
-4.63896e-06
0.000202549
-4.09654e-06
0.000201907
-3.48391e-06
0.000201447
-2.81834e-06
0.000201148
-2.29453e-06
0.000200963
-1.77176e-06
0.000200881
-1.58181e-06
-1.38454e-06
0.000166369
-9.31866e-07
0.000166111
-1.11999e-06
0.000165786
-1.34964e-06
0.000165377
-1.62766e-06
0.000164867
-1.95883e-06
0.000164236
-2.34202e-06
0.000163474
-2.76592e-06
0.000162585
-3.20171e-06
0.000161593
-3.60304e-06
0.000160545
-3.90585e-06
0.0001595
-4.05417e-06
0.00015852
-4.0041e-06
0.000157652
-3.77038e-06
0.000156924
-3.369e-06
0.000156346
-2.90562e-06
0.00015591
-2.38221e-06
0.000155596
-1.98095e-06
0.000155377
-1.55221e-06
0.00015523
-1.43525e-06
-1.24849e-06
0.000128304
-7.46158e-07
0.000128075
-8.91118e-07
0.000127792
-1.067e-06
0.000127443
-1.27864e-06
0.000127014
-1.52937e-06
0.00012649
-1.81833e-06
0.000125862
-2.13734e-06
0.000125126
-2.466e-06
0.000124293
-2.77034e-06
0.00012339
-3.00313e-06
0.000122456
-3.11932e-06
0.000121536
-3.08405e-06
0.000120667
-2.90148e-06
0.000119885
-2.58736e-06
0.000119192
-2.21213e-06
0.000118605
-1.79562e-06
0.000118073
-1.4491e-06
0.000117631
-1.10986e-06
0.000117149
-9.53441e-07
-7.99699e-07
9.62686e-05
-5.36e-07
9.60161e-05
-6.38608e-07
9.57119e-05
-7.62822e-07
9.53451e-05
-9.11868e-07
9.49035e-05
-1.08778e-06
9.4375e-05
-1.28981e-06
9.37495e-05
-1.51188e-06
9.30231e-05
-1.73959e-06
9.22013e-05
-1.94851e-06
9.13034e-05
-2.10521e-06
9.03599e-05
-2.17581e-06
8.94116e-05
-2.13582e-06
8.84949e-05
-1.98472e-06
8.76465e-05
-1.73896e-06
8.68753e-05
-1.44094e-06
8.62038e-05
-1.12412e-06
8.55931e-05
-8.38415e-07
8.50821e-05
-5.98922e-07
8.45541e-05
-4.25444e-07
-3.57798e-07
6.94007e-05
-3.51016e-07
6.91803e-05
-4.18129e-07
6.89168e-05
-4.99368e-07
6.86017e-05
-5.9678e-07
6.82254e-05
-7.11498e-07
6.77786e-05
-8.4295e-07
6.72535e-05
-9.86818e-07
6.66473e-05
-1.13341e-06
6.5965e-05
-1.26621e-06
6.52226e-05
-1.36281e-06
6.44466e-05
-1.39975e-06
6.36719e-05
-1.36116e-06
6.29323e-05
-1.24515e-06
6.22595e-05
-1.0661e-06
6.16673e-05
-8.48719e-07
6.11697e-05
-6.2654e-07
6.07478e-05
-4.16501e-07
6.04125e-05
-2.63624e-07
6.01048e-05
-1.17762e-07
-1.09042e-07
4.93231e-05
-2.03044e-07
4.91468e-05
-2.41863e-07
4.89364e-05
-2.88911e-07
4.86848e-05
-3.45228e-07
4.83846e-05
-4.11305e-07
4.80285e-05
-4.86865e-07
4.76106e-05
-5.68902e-07
4.71289e-05
-6.51712e-07
4.65878e-05
-7.25142e-07
4.60006e-05
-7.75614e-07
4.53901e-05
-7.89186e-07
4.47859e-05
-7.57011e-07
4.42188e-05
-6.78046e-07
4.3716e-05
-5.63252e-07
4.32937e-05
-4.26472e-07
4.29603e-05
-2.93081e-07
4.27089e-05
-1.65167e-07
4.25295e-05
-8.42023e-08
4.24033e-05
8.41056e-09
-8.90563e-09
3.43218e-05
-9.03329e-08
3.41874e-05
-1.07476e-07
3.40268e-05
-1.28236e-07
3.38345e-05
-1.52949e-07
3.36049e-05
-1.81687e-07
3.33323e-05
-2.14267e-07
3.30123e-05
-2.48905e-07
3.26434e-05
-2.82892e-07
3.22296e-05
-3.11335e-07
3.17823e-05
-3.28296e-07
3.13208e-05
-3.27664e-07
3.08703e-05
-3.06486e-07
3.04576e-05
-2.65382e-07
3.01052e-05
-2.1083e-07
2.98278e-05
-1.49117e-07
2.96279e-05
-9.31441e-08
2.95028e-05
-4.00464e-08
2.94313e-05
-1.27465e-08
2.9414e-05
2.56959e-08
8.54246e-09
2.32646e-05
2.31571e-05
2.30289e-05
2.28759e-05
2.26943e-05
2.248e-05
2.22311e-05
2.19482e-05
2.16369e-05
2.13086e-05
2.09809e-05
2.06744e-05
2.0409e-05
2.01982e-05
2.00491e-05
1.99559e-05
1.99159e-05
1.99031e-05
1.99288e-05
6.79197e-06
-8.87733e-07
1.07417e-06
6.73239e-06
-9.53464e-07
1.01306e-06
6.83906e-06
-2.36533e-06
2.25867e-06
7.09081e-06
-4.76696e-06
4.51522e-06
7.38358e-06
-7.9377e-06
7.64493e-06
7.66098e-06
-1.16526e-05
1.13752e-05
7.89254e-06
-1.48493e-05
1.46178e-05
8.08035e-06
-1.66386e-05
1.64508e-05
8.24606e-06
-1.66254e-05
1.64597e-05
8.40285e-06
-1.5258e-05
1.51012e-05
8.5482e-06
-1.31579e-05
1.30126e-05
8.67458e-06
-1.09012e-05
1.07748e-05
8.77688e-06
-8.79424e-06
8.69195e-06
8.85546e-06
-6.98072e-06
6.90216e-06
8.91348e-06
-5.55457e-06
5.49657e-06
8.95519e-06
-4.36344e-06
4.32173e-06
8.98744e-06
-3.61319e-06
3.58096e-06
9.01046e-06
-2.78383e-06
2.76081e-06
9.03662e-06
-2.7197e-06
2.69355e-06
-1.93636e-06
1.91626e-06
1.05293e-05
-9.08404e-07
1.05506e-05
-9.74732e-07
1.05136e-05
-2.32833e-06
1.05742e-05
-4.82756e-06
1.072e-05
-8.08351e-06
1.08815e-05
-1.18141e-05
1.10161e-05
-1.4984e-05
1.11255e-05
-1.6748e-05
1.12362e-05
-1.67361e-05
1.13592e-05
-1.53811e-05
1.14853e-05
-1.3284e-05
1.15991e-05
-1.10149e-05
1.16901e-05
-8.8853e-06
1.17568e-05
-7.04734e-06
1.18015e-05
-5.5993e-06
1.18295e-05
-4.39141e-06
1.1848e-05
-3.63167e-06
1.18585e-05
-2.79434e-06
1.18738e-05
-2.73505e-06
-1.95053e-06
1.50141e-05
-1.00674e-06
1.52384e-05
-1.19908e-06
1.53592e-05
-2.44911e-06
1.54062e-05
-4.87456e-06
1.54161e-05
-8.09344e-06
1.53948e-05
-1.17927e-05
1.53594e-05
-1.49486e-05
1.53348e-05
-1.67235e-05
1.53548e-05
-1.67562e-05
1.54214e-05
-1.54476e-05
1.55116e-05
-1.33742e-05
1.55972e-05
-1.11006e-05
1.56609e-05
-8.94893e-06
1.56983e-05
-7.08475e-06
1.57118e-05
-5.61284e-06
1.57086e-05
-4.38821e-06
1.56962e-05
-3.61927e-06
1.56793e-05
-2.77735e-06
1.56689e-05
-2.72469e-06
-1.94994e-06
2.07979e-05
-1.12723e-06
2.10898e-05
-1.49094e-06
2.13282e-05
-2.68752e-06
2.14597e-05
-5.00613e-06
2.14668e-05
-8.10044e-06
2.13371e-05
-1.16631e-05
2.11484e-05
-1.476e-05
2.09861e-05
-1.65611e-05
2.09132e-05
-1.66833e-05
2.09277e-05
-1.54622e-05
2.09899e-05
-1.34364e-05
2.10513e-05
-1.11619e-05
2.10825e-05
-8.98017e-06
2.10766e-05
-7.07887e-06
2.10382e-05
-5.57438e-06
2.09799e-05
-4.32996e-06
2.09107e-05
-3.55006e-06
2.08424e-05
-2.7091e-06
2.07806e-05
-2.66287e-06
-1.91791e-06
2.85486e-05
-1.26883e-06
2.88504e-05
-1.79281e-06
2.91167e-05
-2.95379e-06
2.92479e-05
-5.13728e-06
2.92171e-05
-8.06966e-06
2.89984e-05
-1.14444e-05
2.86908e-05
-1.44523e-05
2.8416e-05
-1.62864e-05
2.82667e-05
-1.65339e-05
2.82471e-05
-1.54426e-05
2.83114e-05
-1.35007e-05
2.83898e-05
-1.12402e-05
2.84262e-05
-9.01656e-06
2.83964e-05
-7.04909e-06
2.83034e-05
-5.48133e-06
2.81717e-05
-4.19826e-06
2.80156e-05
-3.39402e-06
2.78651e-05
-2.55857e-06
2.77117e-05
-2.5095e-06
-1.82562e-06
3.90289e-05
-1.43343e-06
3.93169e-05
-2.08081e-06
3.95799e-05
-3.2168e-06
3.96756e-05
-5.23291e-06
3.95668e-05
-7.9609e-06
3.92332e-05
-1.11109e-05
3.87757e-05
-1.39948e-05
3.83436e-05
-1.58542e-05
3.80589e-05
-1.62493e-05
3.79489e-05
-1.53326e-05
3.79777e-05
-1.35296e-05
3.80705e-05
-1.1333e-05
3.81591e-05
-9.10518e-06
3.81846e-05
-7.07463e-06
3.81072e-05
-5.40395e-06
3.79384e-05
-4.02942e-06
3.76938e-05
-3.1494e-06
3.74419e-05
-2.30672e-06
3.71509e-05
-2.21849e-06
-1.63292e-06
5.32004e-05
-1.61193e-06
5.34508e-05
-2.33125e-06
5.36779e-05
-3.4439e-06
5.37127e-05
-5.26774e-06
5.35011e-05
-7.74929e-06
5.3015e-05
-1.06247e-05
5.23515e-05
-1.33314e-05
5.16817e-05
-1.51844e-05
5.11605e-05
-1.57281e-05
5.0846e-05
-1.5018e-05
5.07215e-05
-1.34051e-05
5.07271e-05
-1.13386e-05
5.07958e-05
-9.17393e-06
5.08705e-05
-7.14935e-06
5.08936e-05
-5.427e-06
5.08385e-05
-3.97435e-06
5.06446e-05
-2.9555e-06
5.03757e-05
-2.03777e-06
4.99556e-05
-1.79841e-06
-1.31669e-06
7.20678e-05
-1.76785e-06
7.22366e-05
-2.49996e-06
7.23566e-05
-3.56389e-06
7.22625e-05
-5.17366e-06
7.18628e-05
-7.3496e-06
7.11248e-05
-9.88672e-06
7.01357e-05
-1.23423e-05
6.90861e-05
-1.41348e-05
6.81752e-05
-1.48172e-05
6.75087e-05
-1.43515e-05
6.71001e-05
-1.29965e-05
6.69012e-05
-1.11396e-05
6.68412e-05
-9.11393e-06
6.68617e-05
-7.16987e-06
6.69015e-05
-5.46681e-06
6.6952e-05
-4.02489e-06
6.69409e-05
-2.94438e-06
6.69186e-05
-2.01543e-06
6.67058e-05
-1.58566e-06
-1.07486e-06
9.50721e-05
-1.88328e-06
9.51469e-05
-2.57477e-06
9.51269e-05
-3.54386e-06
9.48674e-05
-4.91417e-06
9.42505e-05
-6.73273e-06
9.32331e-05
-8.86934e-06
9.18922e-05
-1.10014e-05
9.04289e-05
-1.26715e-05
8.90839e-05
-1.34722e-05
8.80138e-05
-1.32814e-05
8.727e-05
-1.22526e-05
8.68159e-05
-1.06856e-05
8.65822e-05
-8.88021e-06
8.64884e-05
-7.07607e-06
8.6474e-05
-5.4525e-06
8.64983e-05
-4.04916e-06
8.65349e-05
-2.98094e-06
8.65875e-05
-2.06808e-06
8.66218e-05
-1.61988e-06
-1.13972e-06
0.000122319
0.000122285
0.000122119
0.000121706
0.000120931
0.000119744
0.000118208
0.000116512
0.000114902
0.000113564
0.000112579
0.00011193
0.000111554
0.000111364
0.000111292
0.000111282
0.000111305
0.00011135
0.000111395
5.21174e-08
-5.21163e-08
-2.55294e-08
7.7646e-08
-2.79936e-07
2.54408e-07
-4.57835e-07
1.779e-07
-5.36279e-07
7.84437e-08
-5.34627e-07
-1.65185e-09
-4.33363e-07
-1.01266e-07
-2.71119e-07
-1.62245e-07
-9.46048e-08
-1.76515e-07
5.6378e-08
-1.50984e-07
1.71416e-07
-1.15038e-07
2.75406e-07
-1.0399e-07
3.7439e-07
-9.8984e-08
4.51528e-07
-7.71384e-08
5.13256e-07
-6.17278e-08
5.6181e-07
-4.85532e-08
6.00718e-07
-3.89085e-08
6.29971e-07
-2.9253e-08
6.58252e-07
-2.82804e-08
-2.06882e-08
-2.21911e-08
-2.99231e-08
-3.1672e-07
3.72174e-07
-7.52844e-07
6.90534e-07
-9.80175e-07
4.05231e-07
-1.01643e-06
1.147e-07
-9.18253e-07
-9.98311e-08
-6.98744e-07
-3.20776e-07
-4.01793e-07
-4.59197e-07
-8.04196e-08
-4.97889e-07
2.18409e-07
-4.49814e-07
4.70407e-07
-3.67036e-07
6.69205e-07
-3.02789e-07
8.20125e-07
-2.49904e-07
9.37534e-07
-1.94547e-07
1.02898e-06
-1.53176e-07
1.09878e-06
-1.18351e-07
1.15549e-06
-9.56155e-08
1.19868e-06
-7.24434e-08
1.24017e-06
-6.97716e-08
-5.02321e-08
-1.22765e-07
9.28438e-08
-5.91036e-07
8.40445e-07
-1.06955e-06
1.16905e-06
-1.26644e-06
6.02125e-07
-1.26412e-06
1.12372e-07
-1.1132e-06
-2.50746e-07
-8.21941e-07
-6.12039e-07
-4.37929e-07
-8.43209e-07
-2.45124e-08
-9.11307e-07
3.65902e-07
-8.40229e-07
7.02467e-07
-7.03601e-07
9.71144e-07
-5.71466e-07
1.17451e-06
-4.53273e-07
1.33182e-06
-3.51858e-07
1.45383e-06
-2.75185e-07
1.54692e-06
-2.11437e-07
1.62254e-06
-1.71235e-07
1.67989e-06
-1.29793e-07
1.73492e-06
-1.24806e-07
-8.90093e-08
-2.35122e-07
3.27968e-07
-8.38594e-07
1.44392e-06
-1.33694e-06
1.6674e-06
-1.50592e-06
7.71097e-07
-1.48227e-06
8.87289e-08
-1.28464e-06
-4.4838e-07
-9.22118e-07
-9.74561e-07
-4.48559e-07
-1.31677e-06
6.00125e-08
-1.41988e-06
5.42687e-07
-1.3229e-06
9.6237e-07
-1.12328e-06
1.30392e-06
-9.13012e-07
1.56791e-06
-7.17268e-07
1.77224e-06
-5.56182e-07
1.93115e-06
-4.34102e-07
2.05297e-06
-3.33254e-07
2.15194e-06
-2.70207e-07
2.22671e-06
-2.04565e-07
2.29837e-06
-1.96462e-07
-1.39367e-07
-3.69463e-07
6.97434e-07
-1.08131e-06
2.15577e-06
-1.58219e-06
2.16828e-06
-1.73257e-06
9.21475e-07
-1.69103e-06
4.71913e-08
-1.4415e-06
-6.97908e-07
-9.98231e-07
-1.41783e-06
-4.22422e-07
-1.89258e-06
1.94881e-07
-2.03718e-06
7.81925e-07
-1.90995e-06
1.29466e-06
-1.63601e-06
1.71752e-06
-1.33588e-06
2.05012e-06
-1.04987e-06
2.30872e-06
-8.14778e-07
2.51075e-06
-6.36134e-07
2.6664e-06
-4.88906e-07
2.7931e-06
-3.96911e-07
2.88881e-06
-3.0027e-07
2.98048e-06
-2.88132e-07
-2.03705e-07
-5.23713e-07
1.22115e-06
-1.31817e-06
2.95022e-06
-1.80497e-06
2.65508e-06
-1.94442e-06
1.06093e-06
-1.88244e-06
-1.47951e-08
-1.572e-06
-1.00834e-06
-1.03438e-06
-1.95546e-06
-3.39268e-07
-2.58769e-06
4.04521e-07
-2.78097e-06
1.11224e-06
-2.61767e-06
1.73177e-06
-2.25555e-06
2.24669e-06
-1.8508e-06
2.6569e-06
-1.46007e-06
2.97801e-06
-1.13589e-06
3.23023e-06
-8.88349e-07
3.42558e-06
-6.84257e-07
3.58506e-06
-5.56393e-07
3.70574e-06
-4.2095e-07
3.82145e-06
-4.03845e-07
-2.84791e-07
-6.86866e-07
1.90802e-06
-1.53598e-06
3.79933e-06
-1.99559e-06
3.11469e-06
-2.12756e-06
1.1929e-06
-2.03722e-06
-1.05141e-07
-1.65277e-06
-1.39279e-06
-1.00306e-06
-2.60517e-06
-1.67827e-07
-3.42293e-06
7.23437e-07
-3.67224e-06
1.5709e-06
-3.46513e-06
2.31324e-06
-2.99789e-06
2.93258e-06
-2.47014e-06
3.43041e-06
-1.95791e-06
3.82283e-06
-1.52831e-06
4.1328e-06
-1.19832e-06
4.37418e-06
-9.25642e-07
4.57202e-06
-7.54228e-07
4.72217e-06
-5.711e-07
4.86645e-06
-5.48134e-07
-3.85793e-07
-8.4053e-07
2.74857e-06
-1.7106e-06
4.6694e-06
-2.13183e-06
3.53592e-06
-2.25431e-06
1.31538e-06
-2.12186e-06
-2.37592e-07
-1.64479e-06
-1.86986e-06
-8.6029e-07
-3.38967e-06
1.39572e-07
-4.42279e-06
1.20179e-06
-4.73446e-06
2.20992e-06
-4.47326e-06
3.09236e-06
-3.88032e-06
3.82953e-06
-3.20731e-06
4.42555e-06
-2.55393e-06
4.89817e-06
-2.00093e-06
5.27352e-06
-1.57366e-06
5.56741e-06
-1.21953e-06
5.80939e-06
-9.96205e-07
5.99371e-06
-7.55428e-07
6.17139e-06
-7.25814e-07
-5.10163e-07
-9.59316e-07
3.70789e-06
-1.80273e-06
5.51281e-06
-2.16756e-06
3.90075e-06
-2.27064e-06
1.41847e-06
-2.07502e-06
-4.33218e-07
-1.48036e-06
-2.46452e-06
-5.33593e-07
-4.33644e-06
6.57856e-07
-5.61424e-06
1.91549e-06
-5.9921e-06
3.1052e-06
-5.66297e-06
4.14484e-06
-4.91996e-06
5.01304e-06
-4.07551e-06
5.7173e-06
-3.25819e-06
6.27829e-06
-2.56191e-06
6.72592e-06
-2.02129e-06
7.07817e-06
-1.57178e-06
7.36955e-06
-1.28759e-06
7.59246e-06
-9.78336e-07
7.80807e-06
-9.41421e-07
-6.61181e-07
-1.0269e-06
4.7348e-06
-1.75119e-06
6.2371e-06
-2.02072e-06
4.17028e-06
-2.07667e-06
1.47443e-06
-1.78229e-06
-7.27604e-07
-1.03536e-06
-3.21144e-06
1.06012e-07
-5.47782e-06
1.51543e-06
-7.02366e-06
2.98957e-06
-7.46625e-06
4.37678e-06
-7.05018e-06
5.58587e-06
-6.12906e-06
6.59413e-06
-5.08377e-06
7.41322e-06
-4.07728e-06
8.06765e-06
-3.21635e-06
8.59175e-06
-2.54538e-06
9.00586e-06
-1.9859e-06
9.34984e-06
-1.63157e-06
9.61423e-06
-1.24273e-06
9.87095e-06
-1.19814e-06
-8.41173e-07
-9.62772e-07
5.69758e-06
-1.45704e-06
6.73137e-06
-1.55446e-06
4.26771e-06
-1.49795e-06
1.41792e-06
-1.04048e-06
-1.18508e-06
-8.83899e-08
-4.16354e-06
1.28699e-06
-6.85321e-06
2.93539e-06
-8.67207e-06
4.63513e-06
-9.16599e-06
6.22097e-06
-8.63602e-06
7.5976e-06
-7.5057e-06
8.74279e-06
-6.22896e-06
9.67321e-06
-5.0077e-06
1.04179e-05
-3.96103e-06
1.10157e-05
-3.1432e-06
1.14895e-05
-2.4597e-06
1.18845e-05
-2.02652e-06
1.21895e-05
-1.54773e-06
1.2487e-05
-1.49567e-06
-1.05023e-06
-7.67224e-07
6.4648e-06
-7.62889e-07
6.72704e-06
-5.39211e-07
4.04403e-06
-2.30383e-07
1.1091e-06
5.05525e-07
-1.92099e-06
1.74523e-06
-5.40325e-06
3.39873e-06
-8.50671e-06
5.29164e-06
-1.0565e-05
7.19821e-06
-1.10726e-05
8.95214e-06
-1.039e-05
1.0465e-05
-9.01855e-06
1.1719e-05
-7.48295e-06
1.27367e-05
-6.02545e-06
1.35516e-05
-4.77589e-06
1.42065e-05
-3.79806e-06
1.47266e-05
-2.97982e-06
1.51613e-05
-2.46121e-06
1.54986e-05
-1.8851e-06
1.58293e-05
-1.82635e-06
-1.2836e-06
-3.51078e-08
6.49992e-06
5.92268e-07
6.09967e-06
1.44476e-06
3.19155e-06
2.28846e-06
2.65404e-07
3.50309e-06
-3.13562e-06
5.14063e-06
-7.04079e-06
7.10206e-06
-1.04682e-05
9.1997e-06
-1.26626e-05
1.12336e-05
-1.31064e-05
1.30629e-05
-1.22193e-05
1.46255e-05
-1.05811e-05
1.59146e-05
-8.77211e-06
1.6959e-05
-7.06982e-06
1.77944e-05
-5.61128e-06
1.84655e-05
-4.46914e-06
1.89989e-05
-3.51318e-06
1.94453e-05
-2.90769e-06
1.97937e-05
-2.23346e-06
2.01367e-05
-2.16936e-06
-1.52777e-06
4.26619e-07
6.07331e-06
3.27994e-06
3.24636e-06
5.39717e-06
1.07432e-06
7.24446e-06
-1.58188e-06
9.20227e-06
-5.09344e-06
1.13131e-05
-9.15161e-06
1.35142e-05
-1.26692e-05
1.56486e-05
-1.47971e-05
1.76002e-05
-1.5058e-05
1.92977e-05
-1.39168e-05
2.07293e-05
-1.20127e-05
2.19052e-05
-9.94801e-06
2.28568e-05
-8.0214e-06
2.36164e-05
-6.37093e-06
2.42249e-05
-5.07765e-06
2.47074e-05
-3.99559e-06
2.5111e-05
-3.31133e-06
2.54276e-05
-2.5501e-06
2.57407e-05
-2.48241e-06
-1.75527e-06
7.14749e-06
1.14069e-05
1.47399e-05
1.76732e-05
2.02247e-05
2.24483e-05
2.43968e-05
2.60504e-05
2.74521e-05
2.86365e-05
2.96363e-05
3.04631e-05
3.11337e-05
3.16649e-05
3.20838e-05
3.24099e-05
3.26796e-05
3.28903e-05
3.31014e-05
)
;

boundaryField
{
    inlet
    {
        type            calculated;
        value           nonuniform List<scalar> 
20
(
-1.15584e-05
-1.49282e-05
-1.92806e-05
-2.49018e-05
-3.21619e-05
-4.15387e-05
-5.36493e-05
-6.92908e-05
-8.94925e-05
-0.000115584
-0.000346752
-0.000268477
-0.000207872
-0.000160948
-0.000124616
-9.64858e-05
-7.47054e-05
-5.78417e-05
-4.47847e-05
-3.46752e-05
)
;
    }
    outlet
    {
        type            calculated;
        value           nonuniform List<scalar> 
35
(
6.7894e-07
1.26971e-06
1.7737e-06
2.34873e-06
3.04482e-06
3.90254e-06
4.96746e-06
6.29576e-06
7.95909e-06
1.00509e-05
1.26961e-05
1.60627e-05
2.03809e-05
2.59682e-05
3.32624e-05
9.05672e-06
1.1888e-05
1.56683e-05
2.07486e-05
2.76194e-05
3.69582e-05
4.96394e-05
6.6464e-05
8.66866e-05
0.000111493
0.000335052
0.000259368
0.000200841
0.000155094
0.0001167
8.41122e-05
5.9856e-05
4.23032e-05
2.93966e-05
1.99374e-05
)
;
    }
    frontAndBack
    {
        type            empty;
        value           nonuniform 0();
    }
    noslipwall
    {
        type            calculated;
        value           uniform 0;
    }
}


// ************************************************************************* //
