/*--------------------------------*- C++ -*----------------------------------*\
  =========                 |
  \\      /  F ield         | OpenFOAM: The Open Source CFD Toolbox
   \\    /   O peration     | Website:  https://openfoam.org
    \\  /    A nd           | Version:  7
     \\/     M anipulation  |
\*---------------------------------------------------------------------------*/
FoamFile
{
    version     2.0;
    format      ascii;
    class       surfaceScalarField;
    location    "486";
    object      phi2;
}
// * * * * * * * * * * * * * * * * * * * * * * * * * * * * * * * * * * * * * //

dimensions      [0 3 -1 0 0 0 0];

internalField   nonuniform List<scalar> 
1735
(
8.36321e-06
4.87163e-06
7.80116e-06
5.62061e-07
7.68156e-06
1.19597e-07
7.62844e-06
5.31176e-08
7.61882e-06
9.6222e-09
7.65759e-06
-3.87728e-08
7.74572e-06
-8.81294e-08
7.83541e-06
-8.96874e-08
8.04229e-06
-2.06874e-07
-7.95831e-08
8.12186e-06
1.25561e-05
9.40904e-06
1.17456e-05
1.37253e-06
1.15472e-05
3.17998e-07
1.14586e-05
1.41687e-07
1.14357e-05
3.25261e-08
1.1486e-05
-8.90205e-08
1.15908e-05
-1.92918e-07
1.17424e-05
-2.41279e-07
1.19385e-05
-4.03072e-07
-3.08944e-07
1.21679e-05
1.80599e-05
1.34262e-05
1.69181e-05
2.51438e-06
1.65703e-05
6.65765e-07
1.6414e-05
2.98025e-07
1.63619e-05
8.46393e-08
1.64144e-05
-1.4157e-07
1.65383e-05
-3.16811e-07
1.67313e-05
-4.34263e-07
1.69696e-05
-6.41403e-07
-5.61093e-07
1.72218e-05
2.52805e-05
1.66593e-05
2.37837e-05
4.0112e-06
2.321e-05
1.23942e-06
2.29429e-05
5.65129e-07
2.28404e-05
1.87165e-07
2.28821e-05
-1.83305e-07
2.30272e-05
-4.61919e-07
2.32535e-05
-6.60571e-07
2.35376e-05
-9.25457e-07
-8.51522e-07
2.3828e-05
3.48261e-05
1.866e-05
3.30766e-05
5.76064e-06
3.2206e-05
2.11006e-06
3.1771e-05
1.0001e-06
3.15883e-05
3.69874e-07
3.16012e-05
-1.96187e-07
3.17648e-05
-6.25495e-07
3.20271e-05
-9.22874e-07
3.23506e-05
-1.24894e-06
-1.18228e-06
3.26813e-05
4.7315e-05
1.89086e-05
4.56176e-05
7.45804e-06
4.4448e-05
3.27967e-06
4.37919e-05
1.65618e-06
4.34927e-05
6.69083e-07
4.34559e-05
-1.59399e-07
4.36281e-05
-7.97643e-07
4.39286e-05
-1.22338e-06
4.42823e-05
-1.60259e-06
-1.542e-06
4.4642e-05
6.26156e-05
1.77237e-05
6.20229e-05
8.05077e-06
6.09149e-05
4.3876e-06
6.0086e-05
2.4851e-06
5.96599e-05
1.09525e-06
5.95645e-05
-6.40381e-08
5.97369e-05
-9.70027e-07
6.00712e-05
-1.55773e-06
6.04419e-05
-1.97328e-06
-1.90753e-06
6.08074e-05
8.09305e-05
1.61341e-05
8.16851e-05
7.29616e-06
8.17178e-05
4.35487e-06
8.14167e-05
2.78626e-06
8.11618e-05
1.35012e-06
8.11173e-05
-1.95088e-08
8.13145e-05
-1.16724e-06
8.16669e-05
-1.91018e-06
8.20198e-05
-2.32613e-06
-2.22749e-06
8.23397e-05
0.00010446
1.41468e-05
0.000105487
6.26951e-06
0.000106097
3.74475e-06
0.00010648
2.40333e-06
0.000106772
1.05755e-06
0.000107101
-3.48163e-07
0.000107526
-1.59222e-06
0.000107991
-2.37572e-06
0.000108357
-2.69162e-06
-2.49132e-06
0.000108621
0.000134943
1.15527e-05
0.000136236
4.97635e-06
0.000137012
2.96864e-06
0.000137554
1.86144e-06
0.000137995
6.16702e-07
0.000138447
-8.00038e-07
0.000138938
-2.08361e-06
0.000139398
-2.83603e-06
0.000139701
-2.9945e-06
-2.65206e-06
0.000139862
0.000404988
3.61015e-06
0.00040871
1.25472e-06
0.000411015
6.62915e-07
0.000412616
2.6095e-07
0.000413805
-5.7186e-07
0.000414803
-1.79845e-06
0.000415574
-2.85426e-06
0.000415983
-3.24589e-06
0.000416001
-3.01213e-06
-2.45239e-06
0.000415801
0.000313582
-2.55422e-06
0.000316449
-1.61224e-06
0.000318234
-1.12166e-06
0.000319436
-9.4154e-07
0.000320178
-1.31377e-06
0.000320547
-2.16761e-06
0.000320578
-2.88464e-06
0.000320354
-3.0222e-06
0.000320001
-2.65944e-06
-2.08491e-06
0.000319634
0.000242783
-7.31446e-06
0.000245018
-3.84755e-06
0.000246405
-2.50814e-06
0.000247311
-1.84799e-06
0.000247785
-1.78729e-06
0.000247878
-2.26065e-06
0.000247676
-2.68254e-06
0.00024731
-2.65669e-06
0.000246907
-2.25608e-06
-1.72589e-06
0.000246548
0.00018796
-1.09819e-05
0.00018971
-5.59821e-06
0.000190791
-3.58908e-06
0.000191481
-2.53809e-06
0.000191799
-2.10539e-06
0.000191783
-2.24377e-06
0.000191525
-2.42487e-06
0.000191158
-2.29023e-06
0.000190794
-1.89207e-06
-1.42363e-06
0.000190492
0.000145516
-1.38075e-05
0.000146899
-6.98084e-06
0.000147733
-4.42333e-06
0.000148218
-3.02272e-06
0.00014838
-2.26764e-06
0.000148259
-2.12231e-06
0.000147948
-2.11404e-06
0.000147572
-1.91481e-06
0.000147227
-1.54626e-06
-1.14765e-06
0.000146951
0.000112716
-1.60437e-05
0.000113495
-7.75893e-06
0.000113517
-4.44549e-06
0.000113216
-2.72174e-06
0.000112791
-1.84278e-06
0.000112277
-1.6085e-06
0.000111721
-1.55762e-06
0.000111201
-1.39483e-06
0.000110773
-1.11881e-06
-8.26738e-07
0.000110452
8.63175e-05
-1.68203e-05
8.50938e-05
-6.53523e-06
8.37619e-05
-3.11367e-06
8.28029e-05
-1.76271e-06
8.21208e-05
-1.16069e-06
8.15337e-05
-1.02138e-06
8.09826e-05
-1.00647e-06
8.04978e-05
-9.10058e-07
8.01115e-05
-7.32547e-07
-5.41839e-07
7.98266e-05
6.35781e-05
-1.41672e-05
6.1303e-05
-4.26012e-06
5.99878e-05
-1.79841e-06
5.92085e-05
-9.83429e-07
5.86869e-05
-6.39124e-07
5.82363e-05
-5.70753e-07
5.78035e-05
-5.73642e-07
5.74175e-05
-5.2412e-07
5.71085e-05
-4.23527e-07
-3.13666e-07
5.68803e-05
4.53517e-05
-8.23846e-06
4.30169e-05
-1.92529e-06
4.1988e-05
-7.69565e-07
4.14166e-05
-4.1202e-07
4.10454e-05
-2.67928e-07
4.07219e-05
-2.47289e-07
4.04024e-05
-2.54064e-07
4.0112e-05
-2.33746e-07
3.98776e-05
-1.89108e-07
-1.40037e-07
3.97039e-05
3.14661e-05
2.95408e-05
2.87712e-05
2.83592e-05
2.80913e-05
2.7844e-05
2.75899e-05
2.73562e-05
2.71671e-05
2.7027e-05
0.000415523
-1.93241e-06
2.21072e-06
0.000415028
-2.42726e-06
2.9223e-06
0.000414203
-3.06324e-06
3.88868e-06
0.000412886
-3.87248e-06
5.1896e-06
0.000410886
-4.87716e-06
6.87689e-06
0.000408071
-6.06029e-06
8.8752e-06
0.000404468
-7.33454e-06
1.09375e-05
0.000400328
-8.53128e-06
1.26715e-05
0.00039609
-9.43201e-06
1.36694e-05
0.000392213
-9.84676e-06
1.37242e-05
0.00038901
-9.70055e-06
1.29037e-05
0.000386593
-9.03536e-06
1.14523e-05
0.00038492
-7.99545e-06
9.66855e-06
0.000383849
-6.7315e-06
7.80203e-06
0.000383221
-5.44758e-06
6.07544e-06
0.000382887
-4.21459e-06
4.54828e-06
0.000382744
-3.23219e-06
3.37598e-06
0.000382737
-2.36419e-06
2.37119e-06
0.000382795
-1.92586e-06
1.86781e-06
-1.57736e-06
1.39068e-06
0.000319301
-1.59899e-06
0.000318836
-1.96236e-06
0.000318189
-2.41648e-06
0.000317295
-2.97854e-06
0.000316078
-3.65986e-06
0.000314471
-4.45413e-06
0.000312459
-5.32242e-06
0.000310108
-6.17975e-06
0.000307578
-6.90188e-06
0.000305082
-7.3512e-06
0.000302817
-7.43575e-06
0.000300909
-7.12679e-06
0.000299405
-6.49183e-06
0.000298288
-5.61444e-06
0.000297506
-4.6655e-06
0.000296987
-3.69586e-06
0.000296673
-2.91803e-06
0.000296508
-2.19886e-06
0.00029645
-1.86796e-06
-1.60031e-06
0.000246251
-1.30278e-06
0.000245868
-1.57888e-06
0.00024537
-1.91905e-06
0.000244726
-2.33436e-06
0.000243899
-2.83228e-06
0.000242855
-3.40995e-06
0.000241578
-4.04623e-06
0.000240089
-4.69057e-06
0.000238452
-5.26441e-06
0.000236768
-5.66788e-06
0.000235154
-5.82158e-06
0.000233705
-5.6772e-06
0.000232482
-5.26924e-06
0.000231507
-4.63988e-06
0.000230777
-3.93475e-06
0.000230256
-3.17511e-06
0.000229918
-2.58005e-06
0.000229709
-1.99008e-06
0.000229618
-1.77631e-06
-1.55515e-06
0.000190254
-1.06423e-06
0.000189954
-1.27963e-06
0.000189578
-1.54268e-06
0.000189105
-1.86121e-06
0.000188513
-2.24063e-06
0.000187783
-2.67949e-06
0.000186901
-3.16445e-06
0.000185872
-3.66186e-06
0.000184726
-4.1178e-06
0.000183516
-4.45824e-06
0.000182314
-4.61919e-06
0.000181188
-4.55193e-06
0.000180194
-4.27526e-06
0.000179365
-3.81006e-06
0.000178707
-3.27761e-06
0.000178214
-2.68134e-06
0.00017786
-2.22662e-06
0.000177614
-1.74359e-06
0.000177451
-1.61319e-06
-1.40406e-06
0.000146737
-8.50442e-07
0.000146473
-1.01612e-06
0.000146148
-1.21721e-06
0.000145746
-1.45924e-06
0.000145251
-1.74601e-06
0.000144648
-2.07639e-06
0.000143925
-2.44078e-06
0.000143078
-2.81544e-06
0.000142121
-3.16099e-06
0.000141086
-3.42293e-06
0.000140017
-3.54982e-06
0.000138967
-3.50282e-06
0.00013798
-3.28823e-06
0.000137096
-2.92571e-06
0.000136315
-2.49665e-06
0.000135657
-2.02356e-06
0.000135064
-1.63293e-06
0.000134571
-1.2511e-06
0.000134036
-1.07842e-06
-9.05419e-07
0.000110213
-6.11084e-07
0.000109925
-7.28368e-07
0.000109578
-8.70363e-07
0.00010916
-1.04079e-06
0.000108656
-1.24198e-06
0.000108052
-1.47295e-06
0.000107338
-1.72663e-06
0.000106509
-1.9863e-06
0.000105572
-2.22368e-06
0.000104549
-2.40023e-06
0.000103477
-2.47739e-06
0.000102402
-2.42775e-06
0.000101365
-2.25175e-06
0.000100409
-1.96941e-06
9.95422e-05
-1.63e-06
9.87894e-05
-1.27079e-06
9.81061e-05
-9.49618e-07
9.75348e-05
-6.79844e-07
9.69444e-05
-4.8802e-07
-4.10747e-07
7.9616e-05
-4.00479e-07
7.93649e-05
-4.77227e-07
7.90646e-05
-5.70118e-07
7.87054e-05
-6.81525e-07
7.82762e-05
-8.12798e-07
7.77664e-05
-9.63112e-07
7.71673e-05
-1.12753e-06
7.64758e-05
-1.29485e-06
7.5698e-05
-1.44587e-06
7.48526e-05
-1.55487e-06
7.39704e-05
-1.59516e-06
7.30916e-05
-1.54891e-06
7.22545e-05
-1.41473e-06
7.14949e-05
-1.20982e-06
7.08278e-05
-9.62836e-07
7.02682e-05
-7.11175e-07
6.97938e-05
-4.75244e-07
6.94167e-05
-3.02753e-07
6.90699e-05
-1.41217e-07
-1.29946e-07
5.67118e-05
-2.31943e-07
5.65109e-05
-2.7637e-07
5.6271e-05
-3.30161e-07
5.59841e-05
-3.94621e-07
5.56417e-05
-4.70385e-07
5.52354e-05
-5.56821e-07
5.47586e-05
-6.5078e-07
5.42092e-05
-7.45411e-07
5.35923e-05
-8.29e-07
5.29236e-05
-8.86176e-07
5.22292e-05
-9.0078e-07
5.15433e-05
-8.62955e-07
5.09005e-05
-7.7198e-07
5.03316e-05
-6.40887e-07
4.98544e-05
-4.85615e-07
4.94775e-05
-3.3431e-07
4.91928e-05
-1.90553e-07
4.8989e-05
-9.89394e-08
4.88439e-05
3.85897e-09
-1.46168e-08
3.95755e-05
-1.03483e-07
3.94223e-05
-1.23165e-07
3.92391e-05
-1.46944e-07
3.90197e-05
-1.75287e-07
3.87577e-05
-2.08326e-07
3.84464e-05
-2.45588e-07
3.8081e-05
-2.85373e-07
3.76599e-05
-3.24298e-07
3.71877e-05
-3.56774e-07
3.66774e-05
-3.75887e-07
3.61513e-05
-3.74676e-07
3.56383e-05
-3.49934e-07
3.51688e-05
-3.02536e-07
3.47683e-05
-2.40333e-07
3.4453e-05
-1.7034e-07
3.42254e-05
-1.06686e-07
3.40818e-05
-4.69466e-08
3.39986e-05
-1.5828e-08
3.39756e-05
2.68761e-08
7.81753e-09
2.69236e-05
2.68004e-05
2.66535e-05
2.64782e-05
2.62698e-05
2.60243e-05
2.57389e-05
2.54146e-05
2.50578e-05
2.46819e-05
2.43072e-05
2.39573e-05
2.36548e-05
2.34144e-05
2.32441e-05
2.31374e-05
2.30905e-05
2.30746e-05
2.31015e-05
7.8945e-06
-9.94027e-07
1.22141e-06
7.81297e-06
-1.0526e-06
1.13413e-06
7.92787e-06
-2.72157e-06
2.60667e-06
8.21529e-06
-5.52797e-06
5.24054e-06
8.55202e-06
-9.24474e-06
8.90801e-06
8.8694e-06
-1.36097e-05
1.32923e-05
9.12931e-06
-1.73513e-05
1.70913e-05
9.33547e-06
-1.9396e-05
1.91898e-05
9.51615e-06
-1.92932e-05
1.91125e-05
9.6883e-06
-1.76083e-05
1.74361e-05
9.84886e-06
-1.5096e-05
1.49354e-05
9.98838e-06
-1.24382e-05
1.22987e-05
1.01007e-05
-9.9887e-06
9.87643e-06
1.01861e-05
-7.89777e-06
7.81239e-06
1.02483e-05
-6.26596e-06
6.20372e-06
1.02924e-05
-4.91583e-06
4.87181e-06
1.03258e-05
-4.07072e-06
4.03725e-06
1.03494e-05
-3.13644e-06
3.11287e-06
1.03765e-05
-3.06985e-06
3.04279e-06
-2.18975e-06
2.1687e-06
1.21926e-05
-1.01867e-06
1.22179e-05
-1.07796e-06
1.21719e-05
-2.6755e-06
1.22383e-05
-5.59438e-06
1.24023e-05
-9.40876e-06
1.25814e-05
-1.37887e-05
1.27245e-05
-1.74944e-05
1.2836e-05
-1.95076e-05
1.29506e-05
-1.94078e-05
1.30826e-05
-1.77403e-05
1.32204e-05
-1.52337e-05
1.33451e-05
-1.25629e-05
1.34442e-05
-1.00878e-05
1.35156e-05
-7.96914e-06
1.35622e-05
-6.31258e-06
1.35901e-05
-4.94368e-06
1.36074e-05
-4.08799e-06
1.36162e-05
-3.14529e-06
1.36304e-05
-3.08404e-06
-2.20363e-06
1.73373e-05
-1.13414e-06
1.76004e-05
-1.34111e-06
1.774e-05
-2.81513e-06
1.77942e-05
-5.64854e-06
1.78011e-05
-9.4157e-06
1.77654e-05
-1.3753e-05
1.77078e-05
-1.74368e-05
1.76616e-05
-1.94614e-05
1.76702e-05
-1.94164e-05
1.77369e-05
-1.78071e-05
1.7834e-05
-1.53308e-05
1.79271e-05
-1.26561e-05
1.79953e-05
-1.0156e-05
1.80336e-05
-8.00736e-06
1.80446e-05
-6.32362e-06
1.80368e-05
-4.93585e-06
1.80186e-05
-4.06978e-06
1.79958e-05
-3.12249e-06
1.79802e-05
-3.0685e-06
-2.20033e-06
2.39694e-05
-1.27555e-06
2.43108e-05
-1.68246e-06
2.45846e-05
-3.08895e-06
2.47339e-05
-5.79786e-06
2.47343e-05
-9.41611e-06
2.45695e-05
-1.35882e-05
2.43316e-05
-1.71989e-05
2.41246e-05
-1.92544e-05
2.40259e-05
-1.93177e-05
2.40333e-05
-1.78145e-05
2.40994e-05
-1.53969e-05
2.41666e-05
-1.27232e-05
2.41995e-05
-1.0189e-05
2.41897e-05
-7.99754e-06
2.41424e-05
-6.27631e-06
2.40724e-05
-4.8659e-06
2.39899e-05
-3.98719e-06
2.39088e-05
-3.04147e-06
2.38346e-05
-2.99425e-06
-2.16101e-06
3.28473e-05
-1.4415e-06
3.32007e-05
-2.03591e-06
3.35065e-05
-3.39469e-06
3.36531e-05
-5.94453e-06
3.36064e-05
-9.36932e-06
3.33338e-05
-1.33157e-05
3.2954e-05
-1.68191e-05
3.26138e-05
-1.89142e-05
3.24251e-05
-1.91291e-05
3.23921e-05
-1.77814e-05
3.24605e-05
-1.54653e-05
3.2548e-05
-1.28107e-05
3.25888e-05
-1.02297e-05
3.25543e-05
-7.96311e-06
3.24473e-05
-6.16928e-06
3.22957e-05
-4.71431e-06
3.21159e-05
-3.8074e-06
3.19425e-05
-2.86802e-06
3.17649e-05
-2.81661e-06
-2.05342e-06
4.48343e-05
-1.63382e-06
4.51719e-05
-2.37348e-06
4.54744e-05
-3.6972e-06
4.5579e-05
-6.0491e-06
4.54407e-05
-9.23103e-06
4.50329e-05
-1.29079e-05
4.44762e-05
-1.62624e-05
4.3951e-05
-1.8389e-05
4.3603e-05
-1.8781e-05
4.34636e-05
-1.7642e-05
4.34898e-05
-1.54915e-05
4.35925e-05
-1.29135e-05
4.36927e-05
-1.03299e-05
4.37226e-05
-7.99303e-06
4.36362e-05
-6.08287e-06
4.34458e-05
-4.52391e-06
4.31687e-05
-3.53034e-06
4.2883e-05
-2.58232e-06
4.25516e-05
-2.48521e-06
-1.83319e-06
6.10156e-05
-1.84199e-06
6.13094e-05
-2.66727e-06
6.15711e-05
-3.95886e-06
6.1605e-05
-6.08304e-06
6.13469e-05
-8.97294e-06
6.07614e-05
-1.23224e-05
5.99647e-05
-1.54657e-05
5.91629e-05
-1.75872e-05
5.85407e-05
-1.81589e-05
5.81658e-05
-1.72671e-05
5.80167e-05
-1.53423e-05
5.8021e-05
-1.29178e-05
5.80992e-05
-1.04081e-05
5.81853e-05
-8.07915e-06
5.82135e-05
-6.11104e-06
5.81536e-05
-4.46403e-06
5.79372e-05
-3.31395e-06
5.76362e-05
-2.28132e-06
5.71636e-05
-2.01261e-06
-1.47628e-06
8.25225e-05
-2.02478e-06
8.27221e-05
-2.86686e-06
8.28619e-05
-4.09864e-06
8.27484e-05
-5.96955e-06
8.22747e-05
-8.49926e-06
8.14007e-05
-1.14484e-05
8.02303e-05
-1.42952e-05
7.89926e-05
-1.63496e-05
7.79248e-05
-1.70911e-05
7.71495e-05
-1.64919e-05
7.66795e-05
-1.48723e-05
7.64548e-05
-1.26931e-05
7.63903e-05
-1.03436e-05
7.64176e-05
-8.10644e-06
7.64661e-05
-6.15963e-06
7.65255e-05
-4.52343e-06
7.65153e-05
-3.3037e-06
7.64924e-05
-2.25847e-06
7.62567e-05
-1.77689e-06
-1.20723e-06
0.000108757
-2.16082e-06
0.000108847
-2.95746e-06
0.000108827
-4.07791e-06
0.000108524
-5.66733e-06
0.000107803
-7.77828e-06
0.000106612
-1.02575e-05
0.000105043
-1.27258e-05
0.000103336
-1.46425e-05
0.000101776
-1.55312e-05
0.000100545
-1.52609e-05
9.96985e-05
-1.40256e-05
9.9189e-05
-1.21836e-05
9.89322e-05
-1.00868e-05
9.88341e-05
-8.00833e-06
9.88244e-05
-6.14995e-06
9.88561e-05
-4.55507e-06
9.88998e-05
-3.34746e-06
9.89606e-05
-2.31927e-06
9.90001e-05
-1.81632e-06
-1.28026e-06
0.000139912
0.000139877
0.000139687
0.00013921
0.000138308
0.000136926
0.000135138
0.000133167
0.000131305
0.000129768
0.000128646
0.000127915
0.000127497
0.00012729
0.000127216
0.000127209
0.000127238
0.00012729
0.000127341
6.29407e-08
-6.28408e-08
-5.09483e-08
1.13929e-07
-3.86035e-07
3.35098e-07
-5.96676e-07
2.10635e-07
-6.80545e-07
8.38648e-08
-6.67137e-07
-1.34165e-08
-5.35106e-07
-1.32037e-07
-3.30834e-07
-2.0428e-07
-1.08934e-07
-2.21908e-07
8.19062e-08
-1.90843e-07
2.28387e-07
-1.4648e-07
3.5886e-07
-1.30475e-07
4.80937e-07
-1.22083e-07
5.75702e-07
-9.47692e-08
6.49373e-07
-7.36723e-08
7.05769e-07
-5.64001e-08
7.51701e-07
-4.592e-08
7.86556e-07
-3.4856e-08
8.19787e-07
-3.32329e-08
-2.42169e-08
-4.02895e-08
-2.25425e-08
-4.04962e-07
4.78682e-07
-9.09469e-07
8.39614e-07
-1.16e-06
4.6116e-07
-1.19502e-06
1.18897e-07
-1.07732e-06
-1.31127e-07
-8.16312e-07
-3.93056e-07
-4.6392e-07
-5.56687e-07
-8.43877e-08
-6.01446e-07
2.67374e-07
-5.42603e-07
5.62055e-07
-4.41156e-07
7.93474e-07
-3.61886e-07
9.69656e-07
-2.98259e-07
1.10636e-06
-2.31468e-07
1.21292e-06
-1.80237e-07
1.29518e-06
-1.38656e-07
1.36234e-06
-1.13084e-07
1.41318e-06
-8.56996e-08
1.46216e-06
-8.22142e-08
-5.91432e-08
-1.58326e-07
1.35696e-07
-7.16376e-07
1.03669e-06
-1.2635e-06
1.38676e-06
-1.48186e-06
6.79514e-07
-1.47657e-06
1.13612e-07
-1.29896e-06
-3.08732e-07
-9.55534e-07
-7.36486e-07
-5.03264e-07
-1.00896e-06
-1.8182e-08
-1.08653e-06
4.37574e-07
-9.98357e-07
8.27411e-07
-8.30992e-07
1.13702e-06
-6.71489e-07
1.37138e-06
-5.32617e-07
1.55231e-06
-4.12396e-07
1.69326e-06
-3.21186e-07
1.80207e-06
-2.47468e-07
1.89084e-06
-2.0186e-07
1.95796e-06
-1.52813e-07
2.02264e-06
-1.46896e-07
-1.04893e-07
-2.89376e-07
4.25006e-07
-1.00042e-06
1.74773e-06
-1.5695e-06
1.95584e-06
-1.75686e-06
8.66889e-07
-1.72809e-06
8.48366e-08
-1.49596e-06
-5.40857e-07
-1.06944e-06
-1.16301e-06
-5.12861e-07
-1.56554e-06
8.28113e-08
-1.6822e-06
6.45035e-07
-1.56058e-06
1.13043e-06
-1.31639e-06
1.52337e-06
-1.06443e-06
1.8264e-06
-8.35648e-07
2.06045e-06
-6.46444e-07
2.24297e-06
-5.03707e-07
2.38396e-06
-3.88457e-07
2.49899e-06
-3.16888e-07
2.58594e-06
-2.39762e-07
2.66964e-06
-2.30601e-07
-1.63873e-07
-4.4679e-07
8.71707e-07
-1.28089e-06
2.58186e-06
-1.85099e-06
2.52594e-06
-2.01749e-06
1.03339e-06
-1.96874e-06
3.60777e-08
-1.67613e-06
-8.33468e-07
-1.15535e-06
-1.68379e-06
-4.79294e-07
-2.2416e-06
2.43004e-07
-2.4045e-06
9.26128e-07
-2.24371e-06
1.51887e-06
-1.90913e-06
2.005e-06
-1.55056e-06
2.38603e-06
-1.21668e-06
2.68153e-06
-9.41948e-07
2.91257e-06
-7.34743e-07
3.09142e-06
-5.67306e-07
3.23756e-06
-4.63031e-07
3.34815e-06
-3.50354e-07
3.45459e-06
-3.37037e-07
-2.38701e-07
-6.26993e-07
1.49856e-06
-1.55416e-06
3.50905e-06
-2.10594e-06
3.07773e-06
-2.26111e-06
1.18857e-06
-2.18922e-06
-3.58229e-08
-1.82574e-06
-1.19695e-06
-1.19479e-06
-2.31474e-06
-3.79253e-07
-3.05715e-06
4.90392e-07
-3.27415e-06
1.31338e-06
-3.06669e-06
2.02925e-06
-2.62501e-06
2.62084e-06
-2.14215e-06
3.09031e-06
-1.68614e-06
3.4567e-06
-1.30833e-06
3.74422e-06
-1.02227e-06
3.96748e-06
-7.90566e-07
4.15038e-06
-6.45929e-07
4.28907e-06
-4.89049e-07
4.42265e-06
-4.70614e-07
-3.32479e-07
-8.1623e-07
2.3146e-06
-1.80382e-06
4.49666e-06
-2.32292e-06
3.59685e-06
-2.47152e-06
1.33717e-06
-2.36707e-06
-1.40276e-07
-1.91747e-06
-1.64656e-06
-1.15559e-06
-3.07663e-06
-1.76334e-07
-4.03642e-06
8.65016e-07
-4.31551e-06
1.84984e-06
-4.05152e-06
2.70718e-06
-3.48235e-06
3.41836e-06
-2.85333e-06
3.98758e-06
-2.25536e-06
4.43477e-06
-1.75552e-06
4.78736e-06
-1.37486e-06
5.06217e-06
-1.06538e-06
5.28802e-06
-8.71787e-07
5.45978e-06
-6.6081e-07
5.62548e-06
-6.36315e-07
-4.48726e-07
-9.92506e-07
3.30697e-06
-2.00132e-06
5.5055e-06
-2.47603e-06
4.07158e-06
-2.61637e-06
1.47751e-06
-2.46324e-06
-2.9341e-07
-1.90588e-06
-2.20394e-06
-9.86525e-07
-3.996e-06
1.84993e-07
-5.20796e-06
1.42522e-06
-5.55574e-06
2.59588e-06
-5.22219e-06
3.6144e-06
-4.50087e-06
4.46034e-06
-3.69927e-06
5.14112e-06
-2.93613e-06
5.67906e-06
-2.29347e-06
6.1053e-06
-1.80109e-06
6.43891e-06
-1.39899e-06
6.71409e-06
-1.14697e-06
6.92408e-06
-8.70806e-07
7.12718e-06
-8.39412e-07
-5.91186e-07
-1.12796e-06
4.43502e-06
-2.10056e-06
6.47814e-06
-2.5115e-06
4.48255e-06
-2.63271e-06
1.5987e-06
-2.40629e-06
-5.19828e-07
-1.71211e-06
-2.89813e-06
-6.03197e-07
-5.10494e-06
7.91912e-07
-6.60309e-06
2.25919e-06
-7.02303e-06
3.6395e-06
-6.6025e-06
4.83839e-06
-5.69977e-06
5.83379e-06
-4.69468e-06
6.6373e-06
-3.73965e-06
7.27503e-06
-2.9312e-06
7.78255e-06
-2.30862e-06
8.18143e-06
-1.79786e-06
8.51166e-06
-1.47721e-06
8.76464e-06
-1.12378e-06
9.01007e-06
-1.08485e-06
-7.63406e-07
-1.19977e-06
5.63492e-06
-2.02988e-06
7.3083e-06
-2.33391e-06
4.78659e-06
-2.4044e-06
1.66918e-06
-2.06321e-06
-8.61024e-07
-1.1916e-06
-3.76974e-06
1.44668e-07
-6.44124e-06
1.79375e-06
-8.25219e-06
3.51188e-06
-8.74117e-06
5.11945e-06
-8.21007e-06
6.51206e-06
-7.09238e-06
7.66661e-06
-5.84924e-06
8.59986e-06
-4.67289e-06
9.34267e-06
-3.67402e-06
9.93586e-06
-2.9018e-06
1.04037e-05
-2.26574e-06
1.07924e-05
-1.86588e-06
1.10914e-05
-1.42273e-06
1.13824e-05
-1.37592e-06
-9.67865e-07
-1.11378e-06
6.74875e-06
-1.67383e-06
7.86842e-06
-1.78443e-06
4.8972e-06
-1.72883e-06
1.61355e-06
-1.19797e-06
-1.39188e-06
-8.68935e-08
-4.88084e-06
1.52269e-06
-8.05084e-06
3.44945e-06
-1.0179e-05
5.42761e-06
-1.07193e-05
7.26219e-06
-1.00447e-05
8.84502e-06
-8.6752e-06
1.01541e-05
-7.15833e-06
1.12123e-05
-5.73108e-06
1.20559e-05
-4.51756e-06
1.2731e-05
-3.57695e-06
1.32651e-05
-2.7998e-06
1.371e-05
-2.3108e-06
1.40536e-05
-1.76638e-06
1.43896e-05
-1.71184e-06
-1.20432e-06
-8.73067e-07
7.62184e-06
-8.4975e-07
7.84524e-06
-5.97883e-07
4.64536e-06
-2.53669e-07
1.26928e-06
6.00967e-07
-2.24648e-06
2.04851e-06
-6.32841e-06
3.98266e-06
-9.98502e-06
6.19191e-06
-1.23882e-05
8.40585e-06
-1.29333e-05
1.04297e-05
-1.20685e-05
1.21645e-05
-1.041e-05
1.35942e-05
-8.58803e-06
1.47487e-05
-6.88555e-06
1.56692e-05
-5.43806e-06
1.64066e-05
-4.31442e-06
1.69911e-05
-3.38425e-06
1.74791e-05
-2.79877e-06
1.78577e-05
-2.14501e-06
1.82293e-05
-2.08348e-06
-1.46704e-06
-1.68962e-09
7.62351e-06
7.41281e-07
7.10259e-06
1.70795e-06
3.67877e-06
2.67146e-06
3.05726e-07
4.08352e-06
-3.65853e-06
5.99667e-06
-8.2416e-06
8.28892e-06
-1.22773e-05
1.07309e-05
-1.48303e-05
1.3084e-05
-1.52864e-05
1.51862e-05
-1.41706e-05
1.69705e-05
-1.21943e-05
1.84342e-05
-1.00517e-05
1.96141e-05
-8.06542e-06
2.05539e-05
-6.37791e-06
2.13065e-05
-5.06699e-06
2.19032e-05
-3.98088e-06
2.24019e-05
-3.29752e-06
2.27908e-05
-2.53395e-06
2.31742e-05
-2.46688e-06
-1.74046e-06
5.52628e-07
7.07084e-06
3.85344e-06
3.80194e-06
6.28198e-06
1.25027e-06
8.41689e-06
-1.8292e-06
1.06963e-05
-5.93788e-06
1.31615e-05
-1.07069e-05
1.57267e-05
-1.48426e-05
1.81989e-05
-1.73024e-05
2.04414e-05
-1.7529e-05
2.23777e-05
-1.61069e-05
2.40009e-05
-1.38174e-05
2.5327e-05
-1.13778e-05
2.63949e-05
-9.13336e-06
2.72438e-05
-7.22676e-06
2.79213e-05
-5.7445e-06
2.84568e-05
-4.51637e-06
2.8904e-05
-3.74465e-06
2.92545e-05
-2.88449e-06
2.96014e-05
-2.81378e-06
-1.99314e-06
8.29211e-06
1.32282e-05
1.70852e-05
2.04965e-05
2.34666e-05
2.6052e-05
2.83008e-05
3.01881e-05
3.17716e-05
3.31009e-05
3.42188e-05
3.51396e-05
3.58827e-05
3.64683e-05
3.69276e-05
3.7283e-05
3.75756e-05
3.7804e-05
3.8033e-05
)
;

boundaryField
{
    inlet
    {
        type            calculated;
        value           nonuniform List<scalar> 
20
(
-1.32349e-05
-1.70935e-05
-2.20771e-05
-2.85136e-05
-3.68268e-05
-4.75636e-05
-6.14307e-05
-7.93409e-05
-0.000102473
-0.000132349
-0.000397046
-0.000307418
-0.000238023
-0.000184292
-0.000142691
-0.00011048
-8.55409e-05
-6.62312e-05
-5.12804e-05
-3.97046e-05
)
;
    }
    outlet
    {
        type            calculated;
        value           nonuniform List<scalar> 
35
(
8.44022e-07
1.49707e-06
2.06839e-06
2.72862e-06
3.52941e-06
4.51643e-06
5.74173e-06
7.26964e-06
9.18229e-06
1.15869e-05
1.4626e-05
1.84921e-05
2.34477e-05
2.98541e-05
3.82086e-05
1.03975e-05
1.36443e-05
1.79769e-05
2.37953e-05
3.16573e-05
4.23314e-05
5.68067e-05
7.59876e-05
9.90731e-05
0.000127452
0.000382981
0.000296473
0.000229572
0.000177299
0.000133538
9.64498e-05
6.87891e-05
4.87286e-05
3.39532e-05
2.31093e-05
)
;
    }
    frontAndBack
    {
        type            empty;
        value           nonuniform 0();
    }
    noslipwall
    {
        type            calculated;
        value           uniform 0;
    }
}


// ************************************************************************* //
