/*--------------------------------*- C++ -*----------------------------------*\
  =========                 |
  \\      /  F ield         | OpenFOAM: The Open Source CFD Toolbox
   \\    /   O peration     | Website:  https://openfoam.org
    \\  /    A nd           | Version:  7
     \\/     M anipulation  |
\*---------------------------------------------------------------------------*/
FoamFile
{
    version     2.0;
    format      ascii;
    class       surfaceScalarField;
    location    "486";
    object      phi3;
}
// * * * * * * * * * * * * * * * * * * * * * * * * * * * * * * * * * * * * * //

dimensions      [0 3 -1 0 0 0 0];

internalField   nonuniform List<scalar> 
1735
(
8.95819e-06
5.11645e-06
8.36328e-06
5.94922e-07
8.23568e-06
1.276e-07
8.17865e-06
5.70331e-08
8.16811e-06
1.05372e-08
8.20817e-06
-4.00571e-08
8.30197e-06
-9.37995e-08
8.39529e-06
-9.33287e-08
8.61606e-06
-2.20764e-07
-8.16498e-08
8.69771e-06
1.34146e-05
9.87999e-06
1.25582e-05
1.45135e-06
1.23469e-05
3.38898e-07
1.22525e-05
1.51394e-07
1.22281e-05
3.4903e-08
1.22804e-05
-9.23584e-08
1.23919e-05
-2.05217e-07
1.25522e-05
-2.53617e-07
1.27596e-05
-4.28171e-07
-3.24743e-07
1.30027e-05
1.92656e-05
1.40924e-05
1.80608e-05
2.65611e-06
1.76917e-05
7.07977e-07
1.75258e-05
3.17342e-07
1.74705e-05
9.02059e-08
1.75256e-05
-1.47457e-07
1.76567e-05
-3.36367e-07
1.78614e-05
-4.58264e-07
1.81137e-05
-6.80469e-07
-5.91816e-07
1.83808e-05
2.69385e-05
1.74768e-05
2.53616e-05
4.23305e-06
2.47549e-05
1.31468e-06
2.44721e-05
6.00148e-07
2.43634e-05
1.98893e-07
2.44074e-05
-1.91492e-07
2.45611e-05
-4.90034e-07
2.4801e-05
-6.98206e-07
2.51021e-05
-9.81549e-07
-8.99962e-07
2.54103e-05
3.7076e-05
1.95644e-05
3.52366e-05
6.07241e-06
3.43183e-05
2.23298e-06
3.38591e-05
1.05936e-06
3.3666e-05
3.9196e-07
3.36798e-05
-2.05298e-07
3.38534e-05
-6.63564e-07
3.41317e-05
-9.76534e-07
3.44749e-05
-1.32473e-06
-1.25154e-06
3.48265e-05
5.033e-05
1.98161e-05
4.85521e-05
7.85035e-06
4.73225e-05
3.46262e-06
4.66318e-05
1.75001e-06
4.63167e-05
7.07068e-07
4.62786e-05
-1.67145e-07
4.64616e-05
-8.46594e-07
4.67809e-05
-1.29586e-06
4.71566e-05
-1.70044e-06
-1.63463e-06
4.75397e-05
6.65727e-05
1.85721e-05
6.59583e-05
8.46475e-06
6.48e-05
4.62097e-06
6.39307e-05
2.6193e-06
6.34836e-05
1.15414e-06
6.33849e-05
-6.84045e-08
6.35691e-05
-1.03082e-06
6.39252e-05
-1.65197e-06
6.43197e-05
-2.09496e-06
-2.02465e-06
6.47097e-05
8.60422e-05
1.69053e-05
8.68342e-05
7.67273e-06
8.68729e-05
4.5822e-06
8.6561e-05
2.93125e-06
8.62971e-05
1.41804e-06
8.62543e-05
-2.56524e-08
8.64667e-05
-1.24314e-06
8.68437e-05
-2.02897e-06
8.72206e-05
-2.47189e-06
-2.36722e-06
8.75632e-05
0.000111061
1.48195e-05
0.000112137
6.59622e-06
0.000112779
3.94055e-06
0.000113182
2.52805e-06
0.000113492
1.10866e-06
0.000113841
-3.74747e-07
0.000114293
-1.69519e-06
0.000114789
-2.52561e-06
0.00011518
-2.86245e-06
-2.65022e-06
0.000115463
0.000143467
1.20988e-05
0.000144826
5.23742e-06
0.000145642
3.12427e-06
0.000146212
1.95796e-06
0.000146677
6.43641e-07
0.000147156
-8.53599e-07
0.000147678
-2.21724e-06
0.000148169
-3.01664e-06
0.000148494
-3.18662e-06
-2.82336e-06
0.000148667
0.000430566
3.77245e-06
0.00043448
1.32326e-06
0.000436906
6.98914e-07
0.00043859
2.74041e-07
0.000439842
-6.09164e-07
0.000440899
-1.91033e-06
0.000441717
-3.03469e-06
0.000442153
-3.45303e-06
0.000442172
-3.20588e-06
-2.61112e-06
0.00044196
0.000333387
-2.68938e-06
0.000336403
-1.69255e-06
0.00033828
-1.17833e-06
0.000339545
-9.9096e-07
0.000340325
-1.38966e-06
0.000340713
-2.29833e-06
0.000340742
-3.06377e-06
0.000340502
-3.21285e-06
0.000340125
-2.8289e-06
-2.21866e-06
0.000339733
0.000258116
-7.67965e-06
0.000260467
-4.0436e-06
0.000261926
-2.63679e-06
0.000262879
-1.94436e-06
0.000263376
-1.88672e-06
0.000263471
-2.39336e-06
0.000263253
-2.84573e-06
0.000262862
-2.82152e-06
0.000262431
-2.39767e-06
-1.83497e-06
0.000262047
0.000199832
-1.15248e-05
0.000201672
-5.88434e-06
0.000202809
-3.77376e-06
0.000203535
-2.6701e-06
0.000203868
-2.21997e-06
0.000203847
-2.37221e-06
0.00020357
-2.56901e-06
0.000203178
-2.4294e-06
0.000202789
-2.00852e-06
-1.5119e-06
0.000202466
0.000154708
-1.44878e-05
0.000156161
-7.33731e-06
0.000157039
-4.65135e-06
0.000157549
-3.18011e-06
0.000157718
-2.38981e-06
0.000157588
-2.24175e-06
0.000157256
-2.23747e-06
0.000156856
-2.0292e-06
0.000156488
-1.63989e-06
-1.2177e-06
0.000156193
0.000119836
-1.68328e-05
0.000120655
-8.1565e-06
0.000120683
-4.67896e-06
0.00012037
-2.86716e-06
0.000119924
-1.94459e-06
0.000119383
-1.7006e-06
0.000118795
-1.64944e-06
0.000118245
-1.47862e-06
0.000117792
-1.18679e-06
-8.77312e-07
0.000117451
9.17872e-05
-1.76512e-05
9.05094e-05
-6.87869e-06
8.91129e-05
-3.28246e-06
8.81057e-05
-1.85996e-06
8.7388e-05
-1.22685e-06
8.67685e-05
-1.08117e-06
8.61857e-05
-1.0666e-06
8.56723e-05
-9.65202e-07
8.52628e-05
-7.77369e-07
-5.75183e-07
8.49607e-05
6.76576e-05
-1.4875e-05
6.52672e-05
-4.48829e-06
6.38833e-05
-1.89861e-06
6.30627e-05
-1.03936e-06
6.25125e-05
-6.76566e-07
6.20361e-05
-6.0484e-07
6.15778e-05
-6.08287e-07
6.11688e-05
-5.56168e-07
6.08411e-05
-4.4967e-07
-3.33142e-07
6.0599e-05
4.83136e-05
-8.6542e-06
4.58554e-05
-2.03011e-06
4.47701e-05
-8.13353e-07
4.41668e-05
-4.35977e-07
4.37742e-05
-2.84001e-07
4.34317e-05
-2.62367e-07
4.30931e-05
-2.69699e-07
4.27853e-05
-2.48369e-07
4.25367e-05
-2.01026e-07
-1.48908e-07
4.23525e-05
3.35698e-05
3.15397e-05
3.07263e-05
3.02903e-05
3.00063e-05
2.9744e-05
2.94743e-05
2.92259e-05
2.90249e-05
2.8876e-05
0.000441664
-2.05808e-06
2.3544e-06
0.000441136
-2.5858e-06
3.11351e-06
0.000440255
-3.26431e-06
4.14538e-06
0.000438847
-4.12806e-06
5.53597e-06
0.000436707
-5.20071e-06
7.34027e-06
0.000433695
-6.46371e-06
9.47666e-06
0.000429838
-7.82303e-06
1.16795e-05
0.000425409
-9.09735e-06
1.35262e-05
0.000420883
-1.0052e-05
1.45787e-05
0.000416748
-1.04843e-05
1.46185e-05
0.000413341
-1.03165e-05
1.37239e-05
0.000410777
-9.59634e-06
1.21607e-05
0.000409006
-8.48015e-06
1.02505e-05
0.000407877
-7.12988e-06
8.25946e-06
0.000407216
-5.76241e-06
6.42286e-06
0.000406866
-4.45312e-06
4.80308e-06
0.000406716
-3.41225e-06
3.56263e-06
0.000406709
-2.49468e-06
2.50131e-06
0.000406771
-2.03201e-06
1.97067e-06
-1.66491e-06
1.46857e-06
0.000339377
-1.70202e-06
0.00033888
-2.08926e-06
0.000338189
-2.57333e-06
0.000337234
-3.17259e-06
0.000335932
-3.89907e-06
0.000334214
-4.74588e-06
0.000332062
-5.67105e-06
0.000329548
-6.58327e-06
0.000326845
-7.34927e-06
0.000324183
-7.822e-06
0.000321771
-7.90415e-06
0.000319741
-7.5669e-06
0.000318145
-6.88396e-06
0.000316961
-5.94592e-06
0.000316133
-4.9347e-06
0.000315585
-3.90478e-06
0.000315253
-3.08035e-06
0.000315079
-2.32008e-06
0.000315017
-1.97075e-06
-1.68874e-06
0.00026173
-1.38547e-06
0.000261321
-1.67943e-06
0.000260789
-2.04167e-06
0.0002601
-2.484e-06
0.000259216
-3.01432e-06
0.000258099
-3.62948e-06
0.000256735
-4.3067e-06
0.000255143
-4.9917e-06
0.000253394
-5.60027e-06
0.000251598
-6.02569e-06
0.000249878
-6.18364e-06
0.000248334
-6.02383e-06
0.000247035
-5.58423e-06
0.000246
-4.91122e-06
0.000245225
-4.15982e-06
0.000244674
-3.35324e-06
0.000244316
-2.72269e-06
0.000244095
-2.0993e-06
0.000243998
-1.87378e-06
-1.64083e-06
0.000202211
-1.1305e-06
0.000201891
-1.3596e-06
0.000201489
-1.63941e-06
0.000200983
-1.97826e-06
0.000200351
-2.38191e-06
0.00019957
-2.84871e-06
0.000198628
-3.36429e-06
0.000197528
-3.89256e-06
0.000196304
-4.37577e-06
0.000195013
-4.73488e-06
0.000193731
-4.90189e-06
0.000192533
-4.82573e-06
0.000191476
-4.52735e-06
0.000190595
-4.03011e-06
0.000189899
-3.46314e-06
0.000189376
-2.83055e-06
0.000189003
-2.34922e-06
0.000188742
-1.83923e-06
0.000188571
-1.70223e-06
-1.48203e-06
0.000155966
-9.02598e-07
0.000155685
-1.07866e-06
0.000155338
-1.29238e-06
0.000154909
-1.54965e-06
0.000154382
-1.85449e-06
0.000153738
-2.20564e-06
0.000152967
-2.59276e-06
0.000152065
-2.99045e-06
0.000151046
-3.35657e-06
0.000149944
-3.63297e-06
0.000148807
-3.76504e-06
0.000147693
-3.71198e-06
0.000146647
-3.48122e-06
0.000145711
-3.09444e-06
0.000144887
-2.63852e-06
0.000144193
-2.13726e-06
0.000143569
-1.72472e-06
0.000143051
-1.32173e-06
0.00014249
-1.1411e-06
-9.58551e-07
0.000117197
-6.48623e-07
0.000116892
-7.73259e-07
0.000116524
-9.24164e-07
0.000116079
-1.1053e-06
0.000115544
-1.31916e-06
0.000114903
-1.56464e-06
0.000114144
-1.83415e-06
0.000113264
-2.10982e-06
0.000112268
-2.36142e-06
0.000111183
-2.54783e-06
0.000110046
-2.62815e-06
0.000108908
-2.57357e-06
0.000107812
-2.38505e-06
0.000106802
-2.0844e-06
0.000105888
-1.72438e-06
0.000105095
-1.34408e-06
0.000104375
-1.00532e-06
0.000103774
-7.20505e-07
0.000103152
-5.19686e-07
-4.37607e-07
8.47373e-05
-4.25212e-07
8.44708e-05
-5.06785e-07
8.41522e-05
-6.05515e-07
8.37708e-05
-7.23936e-07
8.33152e-05
-8.63508e-07
8.27738e-05
-1.02328e-06
8.21376e-05
-1.198e-06
8.14035e-05
-1.37568e-06
8.05779e-05
-1.5358e-06
7.9681e-05
-1.65096e-06
7.87457e-05
-1.69288e-06
7.78149e-05
-1.64273e-06
7.69293e-05
-1.49944e-06
7.61265e-05
-1.2816e-06
7.5422e-05
-1.01989e-06
7.48315e-05
-7.53573e-07
7.4331e-05
-5.0481e-07
7.3933e-05
-3.22571e-07
7.35667e-05
-1.53336e-07
-1.40757e-07
6.04202e-05
-2.46396e-07
6.02071e-05
-2.93634e-07
5.99524e-05
-3.50806e-07
5.96478e-05
-4.19347e-07
5.92842e-05
-4.99968e-07
5.88528e-05
-5.91858e-07
5.83466e-05
-6.91791e-07
5.77633e-05
-7.92341e-07
5.71085e-05
-8.81011e-07
5.6399e-05
-9.41523e-07
5.56628e-05
-9.56618e-07
5.4936e-05
-9.15943e-07
5.42555e-05
-8.18953e-07
5.36536e-05
-6.79721e-07
5.3149e-05
-5.15247e-07
5.27504e-05
-3.55037e-07
5.24491e-05
-2.03424e-07
5.2233e-05
-1.06512e-07
5.20784e-05
1.30209e-09
-1.77163e-08
4.22161e-05
-1.10064e-07
4.20535e-05
-1.31019e-07
4.1859e-05
-1.56312e-07
4.16261e-05
-1.86475e-07
4.13478e-05
-2.21673e-07
4.10173e-05
-2.61286e-07
4.06291e-05
-3.03653e-07
4.01818e-05
-3.45051e-07
3.96804e-05
-3.79544e-07
3.91386e-05
-3.9973e-07
3.85802e-05
-3.98219e-07
3.80359e-05
-3.71683e-07
3.75381e-05
-3.21134e-07
3.71135e-05
-2.55108e-07
3.67792e-05
-1.80993e-07
3.65377e-05
-1.13518e-07
3.63848e-05
-5.04865e-08
3.62957e-05
-1.74643e-08
3.62697e-05
2.7345e-08
7.34905e-09
2.87659e-05
2.86349e-05
2.84786e-05
2.82921e-05
2.80704e-05
2.78091e-05
2.75055e-05
2.71604e-05
2.67809e-05
2.63812e-05
2.59829e-05
2.56112e-05
2.52901e-05
2.5035e-05
2.4854e-05
2.47405e-05
2.469e-05
2.46725e-05
2.46999e-05
8.44966e-06
-1.04322e-06
1.29127e-06
8.35705e-06
-1.09702e-06
1.18964e-06
8.47616e-06
-2.90127e-06
2.78217e-06
8.78159e-06
-5.91309e-06
5.60765e-06
9.14047e-06
-9.90709e-06
9.5482e-06
9.47785e-06
-1.46034e-05
1.4266e-05
9.75167e-06
-1.86201e-05
1.83463e-05
9.96658e-06
-2.07918e-05
2.05769e-05
1.01544e-05
-2.06383e-05
2.04505e-05
1.0334e-05
-1.87897e-05
1.86101e-05
1.0502e-05
-1.60665e-05
1.58985e-05
1.0648e-05
-1.32059e-05
1.30599e-05
1.07652e-05
-1.05847e-05
1.04675e-05
1.0854e-05
-8.35553e-06
8.26681e-06
1.09183e-05
-6.62155e-06
6.55728e-06
1.09634e-05
-5.19209e-06
5.14699e-06
1.09974e-05
-4.29999e-06
4.26596e-06
1.10212e-05
-3.31356e-06
3.28975e-06
1.10487e-05
-3.24624e-06
3.21877e-06
-2.31776e-06
2.29625e-06
1.30296e-05
-1.07012e-06
1.30572e-05
-1.1246e-06
1.30065e-05
-2.85058e-06
1.30759e-05
-5.9825e-06
1.3249e-05
-1.00802e-05
1.34366e-05
-1.4791e-05
1.35834e-05
-1.8767e-05
1.36954e-05
-2.09039e-05
1.38115e-05
-2.07544e-05
1.39477e-05
-1.8926e-05
1.40913e-05
-1.62101e-05
1.42214e-05
-1.3336e-05
1.43245e-05
-1.06877e-05
1.43982e-05
-8.42919e-06
1.44457e-05
-6.66904e-06
1.44734e-05
-5.21983e-06
1.449e-05
-4.3166e-06
1.4498e-05
-3.32153e-06
1.45116e-05
-3.25982e-06
-2.33148e-06
1.85054e-05
-1.19473e-06
1.87885e-05
-1.4077e-06
1.89374e-05
-2.99945e-06
1.89951e-05
-6.04028e-06
1.90004e-05
-1.00855e-05
1.89568e-05
-1.47474e-05
1.88873e-05
-1.86975e-05
1.88295e-05
-2.08461e-05
1.8832e-05
-2.07569e-05
1.88986e-05
-1.89926e-05
1.89989e-05
-1.63104e-05
1.90958e-05
-1.34329e-05
1.91663e-05
-1.07582e-05
1.92049e-05
-8.46776e-06
1.92147e-05
-6.67877e-06
1.92045e-05
-5.20962e-06
1.91833e-05
-4.29545e-06
1.91576e-05
-3.29579e-06
1.91394e-05
-3.24165e-06
-2.32681e-06
2.55628e-05
-1.34727e-06
2.59297e-05
-1.7746e-06
2.6221e-05
-3.29074e-06
2.63791e-05
-6.19835e-06
2.63758e-05
-1.00822e-05
2.61924e-05
-1.45641e-05
2.59289e-05
-1.84339e-05
2.56986e-05
-2.06159e-05
2.55865e-05
-2.06448e-05
2.55902e-05
-1.89962e-05
2.56583e-05
-1.63785e-05
2.57284e-05
-1.35031e-05
2.57622e-05
-1.0792e-05
2.57505e-05
-8.45601e-06
2.56987e-05
-6.62704e-06
2.56229e-05
-5.13382e-06
2.55337e-05
-4.20617e-06
2.54462e-05
-3.20838e-06
2.53658e-05
-3.16117e-06
-2.28383e-06
3.50053e-05
-1.52607e-06
3.53854e-05
-2.15478e-06
3.57107e-05
-3.61603e-06
3.58649e-05
-6.35256e-06
3.58095e-05
-1.00268e-05
3.55089e-05
-1.42635e-05
3.50917e-05
-1.80168e-05
3.47177e-05
-2.02419e-05
3.45089e-05
-2.0436e-05
3.44688e-05
-1.89561e-05
3.45393e-05
-1.6449e-05
3.46314e-05
-1.35952e-05
3.46745e-05
-1.08351e-05
3.46378e-05
-8.41933e-06
3.45239e-05
-6.51309e-06
3.43624e-05
-4.97236e-06
3.41708e-05
-4.01456e-06
3.3986e-05
-3.02352e-06
3.37962e-05
-2.97143e-06
-2.16861e-06
4.77465e-05
-1.73286e-06
4.81098e-05
-2.51809e-06
4.8432e-05
-3.93821e-06
4.85407e-05
-6.46125e-06
4.8387e-05
-9.87304e-06
4.79407e-05
-1.38172e-05
4.7333e-05
-1.74091e-05
4.676e-05
-1.96689e-05
4.63797e-05
-2.00557e-05
4.62252e-05
-1.88017e-05
4.62501e-05
-1.64738e-05
4.6358e-05
-1.37031e-05
4.64639e-05
-1.09411e-05
4.64961e-05
-8.45151e-06
4.64053e-05
-6.42226e-06
4.62043e-05
-4.77133e-06
4.59111e-05
-3.72143e-06
4.56087e-05
-2.72105e-06
4.52572e-05
-2.61997e-06
-1.93471e-06
6.49333e-05
-1.95637e-06
6.52496e-05
-2.83444e-06
6.55286e-05
-4.21718e-06
6.55616e-05
-6.49431e-06
6.52795e-05
-9.59095e-06
6.46429e-05
-1.31806e-05
6.37779e-05
-1.65441e-05
6.29086e-05
-1.87996e-05
6.22352e-05
-1.93822e-05
6.18298e-05
-1.83963e-05
6.16684e-05
-1.63124e-05
6.16722e-05
-1.37069e-05
6.17552e-05
-1.10241e-05
6.1847e-05
-8.54338e-06
6.18778e-05
-6.45303e-06
6.18156e-05
-4.70914e-06
6.15882e-05
-3.49397e-06
6.12713e-05
-2.40423e-06
6.07728e-05
-2.12139e-06
-1.55771e-06
8.77598e-05
-2.15303e-06
8.79756e-05
-3.0502e-06
8.81254e-05
-4.36701e-06
8.80018e-05
-6.37066e-06
8.74903e-05
-9.07945e-06
8.65467e-05
-1.22371e-05
8.52838e-05
-1.52812e-05
8.39507e-05
-1.74664e-05
8.28036e-05
-1.82352e-05
8.19737e-05
-1.75664e-05
8.14731e-05
-1.58118e-05
8.12357e-05
-1.34696e-05
8.11692e-05
-1.09576e-05
8.12e-05
-8.57414e-06
8.1253e-05
-6.50602e-06
8.13168e-05
-4.77297e-06
8.1307e-05
-3.48417e-06
8.12839e-05
-2.38115e-06
8.10368e-05
-1.87429e-06
-1.27522e-06
0.00011561
-2.29975e-06
0.000115709
-3.14922e-06
0.000115688
-4.34612e-06
0.000115364
-6.04664e-06
0.00011459
-8.30556e-06
0.000113311
-1.0958e-05
0.000111625
-1.35958e-05
0.000109795
-1.5636e-05
0.000108127
-1.65671e-05
0.000106815
-1.62547e-05
0.000105917
-1.4914e-05
0.000105381
-1.29328e-05
0.000105113
-1.06896e-05
0.000105012
-8.47401e-06
0.000105005
-6.49867e-06
0.00010504
-4.80827e-06
0.000105088
-3.53143e-06
0.000105152
-2.44592e-06
0.000105194
-1.91618e-06
-1.35227e-06
0.000148721
0.000148686
0.000148485
0.000147974
0.000147009
0.000145528
0.000143611
0.000141501
0.000139513
0.000137877
0.000136687
0.000135915
0.000135476
0.000135261
0.000135185
0.00013518
0.000135211
0.000135267
0.000135321
6.80166e-08
-6.79062e-08
-6.76207e-08
1.3568e-07
-4.44872e-07
3.77265e-07
-6.69591e-07
2.24712e-07
-7.54895e-07
8.52987e-08
-7.34899e-07
-2.00063e-08
-5.86925e-07
-1.47981e-07
-3.60954e-07
-2.2598e-07
-1.15571e-07
-2.45392e-07
9.60843e-08
-2.11658e-07
2.59108e-07
-1.63023e-07
4.02898e-07
-1.43793e-07
5.36025e-07
-1.33135e-07
6.39293e-07
-1.03272e-07
7.18854e-07
-7.95645e-08
7.79216e-07
-6.03669e-08
8.28654e-07
-4.94214e-08
8.66302e-07
-3.76487e-08
9.02029e-07
-3.57294e-08
-2.60096e-08
-5.00122e-08
-1.7888e-08
-4.52752e-07
5.38499e-07
-9.91771e-07
9.16291e-07
-1.2519e-06
4.84837e-07
-1.28591e-06
1.19318e-07
-1.15809e-06
-1.47829e-07
-8.75849e-07
-4.30238e-07
-4.95155e-07
-6.06689e-07
-8.59911e-08
-6.54562e-07
2.92623e-07
-5.9027e-07
6.08779e-07
-4.79173e-07
8.56724e-07
-3.9173e-07
1.04593e-06
-3.22339e-07
1.19265e-06
-2.49986e-07
1.30702e-06
-1.93934e-07
1.39558e-06
-1.48926e-07
1.46802e-06
-1.2187e-07
1.52277e-06
-9.24002e-08
1.57557e-06
-8.8528e-08
-6.36725e-08
-1.77516e-07
1.59533e-07
-7.83182e-07
1.14412e-06
-1.36429e-06
1.49742e-06
-1.59143e-06
7.11983e-07
-1.58449e-06
1.12384e-07
-1.39308e-06
-3.39243e-07
-1.02301e-06
-8.00314e-07
-5.3593e-07
-1.09377e-06
-1.44491e-08
-1.17604e-06
4.744e-07
-1.07912e-06
8.91015e-07
-8.95787e-07
1.22129e-06
-7.22005e-07
1.47158e-06
-5.7262e-07
1.66476e-06
-4.43169e-07
1.81551e-06
-3.44684e-07
1.93234e-06
-2.65751e-07
2.02781e-06
-2.17338e-07
2.09992e-06
-1.64513e-07
2.16953e-06
-1.58137e-07
-1.12972e-07
-3.1879e-07
4.7825e-07
-1.08603e-06
1.91136e-06
-1.68925e-06
2.10064e-06
-1.88403e-06
9.06775e-07
-1.85272e-06
8.10676e-08
-1.60281e-06
-5.89151e-07
-1.14366e-06
-1.25946e-06
-5.44776e-07
-1.69265e-06
9.50691e-08
-1.81589e-06
6.97549e-07
-1.6816e-06
1.21599e-06
-1.41422e-06
1.63479e-06
-1.14081e-06
1.95766e-06
-8.95493e-07
2.20695e-06
-6.9246e-07
2.4016e-06
-5.39334e-07
2.55237e-06
-4.16515e-07
2.67557e-06
-3.40543e-07
2.76875e-06
-2.57689e-07
2.85861e-06
-2.47999e-07
-1.76351e-07
-4.88477e-07
9.6663e-07
-1.38557e-06
2.80849e-06
-1.98843e-06
2.7035e-06
-2.16161e-06
1.07995e-06
-2.10937e-06
2.8828e-08
-1.79462e-06
-9.03901e-07
-1.23439e-06
-1.8197e-06
-5.07281e-07
-2.41977e-06
2.68216e-07
-2.59139e-06
9.99919e-07
-2.4133e-06
1.63288e-06
-2.04719e-06
2.15078e-06
-1.65871e-06
2.55626e-06
-1.30097e-06
2.87053e-06
-1.00673e-06
3.11637e-06
-7.85177e-07
3.30703e-06
-6.07174e-07
3.46307e-06
-4.96582e-07
3.58126e-06
-3.75882e-07
3.69524e-06
-3.61977e-07
-2.56535e-07
-6.82175e-07
1.64865e-06
-1.67695e-06
3.8033e-06
-2.25903e-06
3.28559e-06
-2.42117e-06
1.2421e-06
-2.34445e-06
-4.7896e-08
-1.9538e-06
-1.29456e-06
-1.27538e-06
-2.49813e-06
-3.98544e-07
-3.2966e-06
5.34829e-07
-3.52476e-06
1.41605e-06
-3.29453e-06
2.18034e-06
-2.81147e-06
2.81039e-06
-2.28876e-06
3.30964e-06
-1.80022e-06
3.6989e-06
-1.39598e-06
4.00435e-06
-1.09063e-06
4.24177e-06
-8.44602e-07
4.43657e-06
-6.9138e-07
4.58445e-06
-5.23757e-07
4.72714e-06
-5.04669e-07
-3.56793e-07
-8.8469e-07
2.53313e-06
-1.94217e-06
4.8608e-06
-2.48878e-06
3.83221e-06
-2.64534e-06
1.39866e-06
-2.53389e-06
-1.5935e-07
-2.05101e-06
-1.77746e-06
-1.23209e-06
-3.31705e-06
-1.79555e-07
-4.34915e-06
9.37758e-07
-4.64208e-06
1.99194e-06
-4.34871e-06
2.90705e-06
-3.72658e-06
3.66426e-06
-3.04597e-06
4.26926e-06
-2.40523e-06
4.74399e-06
-1.87071e-06
5.11809e-06
-1.46473e-06
5.40981e-06
-1.13632e-06
5.64987e-06
-9.31441e-07
5.83261e-06
-7.06502e-07
6.00922e-06
-6.81274e-07
-4.80813e-07
-1.07215e-06
3.60516e-06
-2.15046e-06
5.93914e-06
-2.6499e-06
4.33167e-06
-2.79936e-06
1.54812e-06
-2.63579e-06
-3.22921e-07
-2.03752e-06
-2.37574e-06
-1.04962e-06
-4.30497e-06
2.09192e-07
-5.60799e-06
1.53947e-06
-5.97237e-06
2.79214e-06
-5.60139e-06
3.879e-06
-4.81344e-06
4.77942e-06
-3.94639e-06
5.5026e-06
-3.12841e-06
6.07327e-06
-2.44138e-06
6.52509e-06
-1.91655e-06
6.87871e-06
-1.48995e-06
7.17068e-06
-1.22341e-06
7.39368e-06
-9.29501e-07
7.60969e-06
-8.97285e-07
-6.32479e-07
-1.21574e-06
4.82101e-06
-2.25228e-06
6.97572e-06
-2.68475e-06
4.76416e-06
-2.81574e-06
1.67911e-06
-2.57364e-06
-5.65022e-07
-1.82887e-06
-3.12053e-06
-6.37555e-07
-5.49631e-06
8.61072e-07
-7.10664e-06
2.43437e-06
-7.54568e-06
3.91077e-06
-7.07781e-06
5.1896e-06
-6.09227e-06
6.24866e-06
-5.00546e-06
7.10176e-06
-3.9815e-06
7.77783e-06
-3.11744e-06
8.31535e-06
-2.45408e-06
8.73764e-06
-1.91224e-06
9.08745e-06
-1.57322e-06
9.35561e-06
-1.19766e-06
9.61615e-06
-1.15783e-06
-8.15466e-07
-1.28872e-06
6.10986e-06
-2.1706e-06
7.85764e-06
-2.49111e-06
5.08469e-06
-2.57014e-06
1.75812e-06
-2.20502e-06
-9.30135e-07
-1.27012e-06
-4.05545e-06
1.65155e-07
-6.93161e-06
1.93597e-06
-8.87747e-06
3.77742e-06
-9.38714e-06
5.49599e-06
-8.79638e-06
6.98064e-06
-7.57692e-06
8.20836e-06
-6.23319e-06
9.19856e-06
-4.9717e-06
9.98545e-06
-3.90433e-06
1.06131e-05
-3.08176e-06
1.11079e-05
-2.40703e-06
1.1519e-05
-1.98434e-06
1.18354e-05
-1.514e-06
1.21438e-05
-1.46625e-06
-1.03231e-06
-1.19017e-06
7.30007e-06
-1.78155e-06
8.4491e-06
-1.89904e-06
5.2022e-06
-1.84565e-06
1.70468e-06
-1.27736e-06
-1.49841e-06
-8.5634e-08
-5.2472e-06
1.6429e-06
-8.66016e-06
3.71089e-06
-1.09455e-05
5.82966e-06
-1.15059e-05
7.78939e-06
-1.07561e-05
9.47553e-06
-9.26305e-06
1.08665e-05
-7.62416e-06
1.19884e-05
-6.09357e-06
1.28811e-05
-4.79707e-06
1.35948e-05
-3.79541e-06
1.41589e-05
-2.97115e-06
1.46288e-05
-2.45426e-06
1.49919e-05
-1.87704e-06
1.53471e-05
-1.8215e-06
-1.28261e-06
-9.24396e-07
8.22449e-06
-8.89624e-07
8.41449e-06
-6.25433e-07
4.93803e-06
-2.65581e-07
1.34478e-06
6.49323e-07
-2.41329e-06
2.20227e-06
-6.80019e-06
4.2789e-06
-1.07368e-05
6.64843e-06
-1.3315e-05
9.0174e-06
-1.38749e-05
1.11767e-05
-1.29154e-05
1.30226e-05
-1.11089e-05
1.454e-05
-9.14151e-06
1.57624e-05
-7.31605e-06
1.67354e-05
-5.77003e-06
1.75139e-05
-4.57391e-06
1.81304e-05
-3.5876e-06
1.86449e-05
-2.96881e-06
1.90442e-05
-2.27629e-06
1.94364e-05
-2.21369e-06
-1.5601e-06
2.00153e-08
8.20444e-06
8.23096e-07
7.61176e-06
1.84338e-06
3.91782e-06
2.86481e-06
3.23297e-07
4.37664e-06
-3.9251e-06
6.42954e-06
-8.85311e-06
8.88961e-06
-1.31969e-05
1.15057e-05
-1.59311e-05
1.40194e-05
-1.63886e-05
1.62582e-05
-1.51542e-05
1.81531e-05
-1.30039e-05
1.97037e-05
-1.06921e-05
2.09509e-05
-8.5632e-06
2.19425e-05
-6.76162e-06
2.27354e-05
-5.36683e-06
2.33634e-05
-4.2156e-06
2.38881e-05
-3.49352e-06
2.42973e-05
-2.68541e-06
2.47008e-05
-2.61725e-06
-1.84819e-06
6.25996e-07
7.57841e-06
4.15024e-06
4.08767e-06
6.73054e-06
1.33757e-06
9.00856e-06
-1.95474e-06
1.14501e-05
-6.36665e-06
1.40949e-05
-1.14979e-05
1.68445e-05
-1.59465e-05
1.94866e-05
-1.85733e-05
2.18749e-05
-1.8777e-05
2.39302e-05
-1.72095e-05
2.56485e-05
-1.47222e-05
2.70491e-05
-1.20927e-05
2.81747e-05
-9.68871e-06
2.90676e-05
-7.65452e-06
2.97791e-05
-6.07837e-06
3.03408e-05
-4.77727e-06
3.08094e-05
-3.96215e-06
3.11768e-05
-3.05274e-06
3.15405e-05
-2.98099e-06
-2.11346e-06
8.86954e-06
1.41469e-05
1.82666e-05
2.19196e-05
2.51011e-05
2.78692e-05
3.02689e-05
3.22725e-05
3.3946e-05
3.53466e-05
3.65228e-05
3.749e-05
3.82688e-05
3.88811e-05
3.936e-05
3.97297e-05
4.00335e-05
4.02705e-05
4.05083e-05
)
;

boundaryField
{
    inlet
    {
        type            calculated;
        value           nonuniform List<scalar> 
20
(
-1.40747e-05
-1.81781e-05
-2.34779e-05
-3.03229e-05
-3.91636e-05
-5.05817e-05
-6.53288e-05
-8.43754e-05
-0.000108975
-0.000140747
-0.00042224
-0.000326925
-0.000253126
-0.000195986
-0.000151745
-0.000117491
-9.09688e-05
-7.04338e-05
-5.45344e-05
-4.2224e-05
)
;
    }
    outlet
    {
        type            calculated;
        value           nonuniform List<scalar> 
35
(
9.2806e-07
1.61322e-06
2.21882e-06
2.92199e-06
3.77542e-06
4.82739e-06
6.13324e-06
7.76135e-06
9.79913e-06
1.23607e-05
1.55974e-05
1.97139e-05
2.49889e-05
3.18058e-05
4.06911e-05
1.10702e-05
1.45253e-05
1.91347e-05
2.53228e-05
3.3681e-05
4.50233e-05
6.03958e-05
8.07543e-05
0.000105271
0.000135437
0.000406967
0.000315041
0.00024395
0.000188412
0.000141967
0.000102632
7.32698e-05
5.19553e-05
3.62446e-05
2.47072e-05
)
;
    }
    frontAndBack
    {
        type            empty;
        value           nonuniform 0();
    }
    noslipwall
    {
        type            calculated;
        value           uniform 0;
    }
}


// ************************************************************************* //
