/*--------------------------------*- C++ -*----------------------------------*\
  =========                 |
  \\      /  F ield         | OpenFOAM: The Open Source CFD Toolbox
   \\    /   O peration     | Website:  https://openfoam.org
    \\  /    A nd           | Version:  7
     \\/     M anipulation  |
\*---------------------------------------------------------------------------*/
FoamFile
{
    version     2.0;
    format      ascii;
    class       surfaceScalarField;
    location    "486";
    object      phi4;
}
// * * * * * * * * * * * * * * * * * * * * * * * * * * * * * * * * * * * * * //

dimensions      [0 3 -1 0 0 0 0];

internalField   nonuniform List<scalar> 
1735
(
9.55513e-06
5.35934e-06
8.92754e-06
6.27588e-07
8.79196e-06
1.35578e-07
8.73101e-06
6.09534e-08
8.71959e-06
1.14244e-08
8.76088e-06
-4.12905e-08
8.86041e-06
-9.95364e-08
8.95727e-06
-9.68597e-08
9.1919e-06
-2.34627e-07
-8.34039e-08
9.27531e-06
1.42752e-05
1.03469e-05
1.33731e-05
1.52964e-06
1.3149e-05
3.59711e-07
1.30489e-05
1.61108e-07
1.30231e-05
3.72269e-08
1.30774e-05
-9.55927e-08
1.31954e-05
-2.17591e-07
1.33643e-05
-2.65781e-07
1.35828e-05
-4.53075e-07
-3.4006e-07
1.38394e-05
2.04732e-05
1.47526e-05
1.9206e-05
2.79682e-06
1.88157e-05
7.49979e-07
1.86402e-05
3.36643e-07
1.85817e-05
9.56905e-08
1.86393e-05
-1.53206e-07
1.87777e-05
-3.55972e-07
1.8994e-05
-4.82044e-07
1.92601e-05
-7.19155e-07
-6.21895e-07
1.95419e-05
2.85982e-05
1.82866e-05
2.69418e-05
4.45325e-06
2.63023e-05
1.38952e-06
2.60038e-05
6.35071e-07
2.5889e-05
2.10494e-07
2.59353e-05
-1.99529e-07
2.60975e-05
-5.18156e-07
2.63511e-05
-7.35571e-07
2.6669e-05
-1.03711e-06
-9.47611e-07
2.69947e-05
3.93271e-05
2.04599e-05
3.73985e-05
6.38183e-06
3.64329e-05
2.35512e-06
3.59496e-05
1.11836e-06
3.57463e-05
4.13842e-07
3.5761e-05
-2.14276e-07
3.59444e-05
-7.01603e-07
3.62387e-05
-1.02987e-06
3.66015e-05
-1.39989e-06
-1.31993e-06
3.69738e-05
5.33454e-05
2.07144e-05
5.14877e-05
8.23954e-06
5.01985e-05
3.64423e-06
4.94736e-05
1.84329e-06
4.91428e-05
7.4471e-07
4.91033e-05
-1.74814e-07
4.92972e-05
-8.95497e-07
4.96353e-05
-1.36798e-06
5.0033e-05
-1.79761e-06
-1.72639e-06
5.04395e-05
7.05293e-05
1.94119e-05
6.98936e-05
8.87523e-06
6.86853e-05
4.85252e-06
6.77761e-05
2.75254e-06
6.73083e-05
1.21245e-06
6.72063e-05
-7.2805e-08
6.74024e-05
-1.09158e-06
6.77803e-05
-1.74583e-06
6.81987e-05
-2.216e-06
-2.141e-06
6.86133e-05
9.11531e-05
1.76687e-05
9.19822e-05
8.04616e-06
9.2027e-05
4.80765e-06
9.17044e-05
3.07511e-06
9.14317e-05
1.48523e-06
9.13908e-05
-3.1927e-08
9.16182e-05
-1.31904e-06
9.20198e-05
-2.14742e-06
9.2421e-05
-2.61713e-06
-2.5064e-06
9.27864e-05
0.000117661
1.54852e-05
0.000118787
6.92031e-06
0.00011946
4.13476e-06
0.000119883
2.6518e-06
0.000120209
1.15912e-06
0.000120578
-4.01439e-07
0.000121058
-1.79814e-06
0.000121585
-2.67523e-06
0.000122001
-3.03294e-06
-2.80883e-06
0.000122304
0.00015199
1.26394e-05
0.000153414
5.49647e-06
0.00015427
3.27865e-06
0.000154868
2.05375e-06
0.000155357
6.70097e-07
0.000155863
-9.07196e-07
0.000156416
-2.35082e-06
0.000156938
-3.19709e-06
0.000157283
-3.37861e-06
-2.99462e-06
0.000157469
0.00045614
3.93325e-06
0.000460245
1.39153e-06
0.000462789
7.34737e-07
0.000464556
2.87107e-07
0.000465872
-6.4648e-07
0.000466987
-2.02207e-06
0.000467851
-3.21504e-06
0.000468314
-3.66017e-06
0.000468336
-3.39971e-06
-2.76998e-06
0.000468111
0.000353188
-2.8229e-06
0.000356351
-1.77179e-06
0.00035832
-1.23435e-06
0.000359647
-1.03987e-06
0.000360466
-1.46521e-06
0.000360873
-2.42874e-06
0.0003609
-3.24272e-06
0.000360644
-3.40344e-06
0.000360242
-2.99841e-06
-2.35251e-06
0.000359825
0.000273447
-8.04073e-06
0.000275913
-4.23754e-06
0.000277443
-2.76415e-06
0.000278443
-2.03982e-06
0.000278963
-1.98555e-06
0.00027906
-2.52559e-06
0.000278826
-3.00862e-06
0.000278409
-2.9862e-06
0.00027795
-2.53923e-06
-1.94406e-06
0.000277541
0.000211701
-1.20617e-05
0.000213632
-6.16757e-06
0.000214824
-3.95665e-06
0.000215585
-2.80087e-06
0.000215933
-2.33375e-06
0.000215908
-2.50005e-06
0.000215612
-2.71276e-06
0.000215194
-2.56834e-06
0.00021478
-2.12485e-06
-1.60012e-06
0.000214436
0.000163898
-1.51606e-05
0.000165421
-7.69024e-06
0.000166342
-4.87721e-06
0.000166877
-3.33604e-06
0.000167054
-2.51105e-06
0.000166914
-2.36054e-06
0.000166562
-2.36047e-06
0.000166137
-2.14332e-06
0.000165746
-1.73337e-06
-1.28767e-06
0.000165433
0.000126954
-1.76134e-05
0.000127814
-8.55019e-06
0.000127847
-4.91033e-06
0.000127522
-3.01134e-06
0.000127057
-2.04567e-06
0.000126489
-1.79221e-06
0.000125869
-1.74092e-06
0.000125288
-1.56218e-06
0.000124809
-1.25464e-06
-9.27811e-07
0.000124449
9.72567e-05
-1.84733e-05
9.59254e-05
-7.21898e-06
9.4465e-05
-3.44985e-06
9.34101e-05
-1.95647e-06
9.2657e-05
-1.29259e-06
9.20055e-05
-1.14066e-06
9.13911e-05
-1.12652e-06
9.08491e-05
-1.02021e-06
9.04166e-05
-8.2211e-07
-6.0848e-07
9.00972e-05
7.17386e-05
-1.55754e-05
6.92341e-05
-4.71445e-06
6.77823e-05
-1.99805e-06
6.69207e-05
-1.09492e-06
6.63419e-05
-7.13803e-07
6.58401e-05
-6.38788e-07
6.53564e-05
-6.42831e-07
6.49243e-05
-5.88147e-07
6.4578e-05
-4.75771e-07
-3.52594e-07
6.43221e-05
5.12786e-05
-9.06574e-06
4.86983e-05
-2.13408e-06
4.75571e-05
-8.56844e-07
4.69219e-05
-4.59792e-07
4.65081e-05
-3e-07
4.61467e-05
-2.77395e-07
4.57892e-05
-2.85297e-07
4.5464e-05
-2.62965e-07
4.52012e-05
-2.12928e-07
-1.57773e-07
4.50063e-05
3.56777e-05
3.35436e-05
3.26867e-05
3.22269e-05
3.19269e-05
3.16495e-05
3.13643e-05
3.11013e-05
3.08884e-05
3.07306e-05
0.000467797
-2.18389e-06
2.49813e-06
0.000467236
-2.74457e-06
3.30488e-06
0.0004663
-3.46576e-06
4.40254e-06
0.0004648
-4.38425e-06
5.88338e-06
0.00046252
-5.52516e-06
7.80538e-06
0.000459308
-6.86834e-06
1.00805e-05
0.000455197
-8.313e-06
1.24244e-05
0.000450478
-9.665e-06
1.43839e-05
0.000445661
-1.06734e-05
1.54904e-05
0.000441269
-1.11228e-05
1.55142e-05
0.000437658
-1.09328e-05
1.45443e-05
0.000434946
-1.01571e-05
1.28686e-05
0.000433079
-8.96432e-06
1.08317e-05
0.000431891
-7.52761e-06
8.71602e-06
0.000431198
-6.07666e-06
6.76964e-06
0.000430831
-4.69118e-06
5.05742e-06
0.000430674
-3.59202e-06
3.74909e-06
0.000430668
-2.62509e-06
2.63149e-06
0.000430732
-2.13825e-06
2.07385e-06
-1.75268e-06
1.54694e-06
0.000359446
-1.80515e-06
0.000358918
-2.21631e-06
0.000358183
-2.73041e-06
0.000357165
-3.36698e-06
0.000355779
-4.13878e-06
0.000353949
-5.03827e-06
0.000351656
-6.02045e-06
0.000348979
-6.98763e-06
0.000346103
-7.79741e-06
0.000343274
-8.2933e-06
0.000340713
-8.37271e-06
0.000338563
-8.00681e-06
0.000336874
-7.27562e-06
0.000335624
-6.27681e-06
0.00033475
-5.20333e-06
0.000334172
-4.11322e-06
0.000333823
-3.24232e-06
0.000333639
-2.44112e-06
0.000333574
-2.07347e-06
-1.77721e-06
0.000277204
-1.46819e-06
0.000276768
-1.78005e-06
0.000276202
-2.16441e-06
0.000275469
-2.6338e-06
0.000274527
-3.1966e-06
0.000273338
-3.84934e-06
0.000271885
-4.56756e-06
0.00027019
-5.29325e-06
0.000268329
-5.93647e-06
0.00026642
-6.38369e-06
0.000264593
-6.54565e-06
0.000262956
-6.37016e-06
0.000261579
-5.89873e-06
0.000260484
-5.18197e-06
0.000259665
-4.38431e-06
0.000259083
-3.53087e-06
0.000258706
-2.86493e-06
0.000258473
-2.20827e-06
0.00025837
-1.97109e-06
-1.72642e-06
0.000214164
-1.19676e-06
0.000213824
-1.43955e-06
0.000213395
-1.73614e-06
0.000212857
-2.09535e-06
0.000212184
-2.52326e-06
0.000211352
-3.01804e-06
0.000210349
-3.56426e-06
0.000209179
-4.12339e-06
0.000207877
-4.63382e-06
0.000206504
-5.01148e-06
0.000205143
-5.18437e-06
0.000203872
-5.09915e-06
0.000202752
-4.7789e-06
0.00020182
-4.24957e-06
0.000201084
-3.64809e-06
0.000200532
-2.97926e-06
0.000200139
-2.47142e-06
0.000199865
-1.93459e-06
0.000199685
-1.79105e-06
-1.55987e-06
0.000165191
-9.547e-07
0.000164893
-1.14115e-06
0.000164524
-1.36751e-06
0.000164069
-1.64003e-06
0.000163508
-1.96295e-06
0.000162825
-2.33487e-06
0.000162006
-2.74474e-06
0.000161048
-3.16544e-06
0.000159966
-3.55207e-06
0.000158797
-3.84286e-06
0.000157593
-3.97999e-06
0.000156415
-3.92075e-06
0.00015531
-3.67374e-06
0.000154323
-3.26268e-06
0.000153454
-2.77993e-06
0.000152726
-2.25058e-06
0.000152071
-1.81623e-06
0.000151528
-1.3922e-06
0.000150941
-1.20369e-06
-1.01167e-06
0.000124181
-6.86116e-07
0.000123858
-8.18104e-07
0.000123468
-9.77921e-07
0.000122998
-1.16978e-06
0.000122431
-1.39632e-06
0.000121753
-1.6563e-06
0.00012095
-1.94165e-06
0.000120017
-2.23331e-06
0.000118964
-2.49908e-06
0.000117817
-2.6953e-06
0.000116616
-2.77873e-06
0.000115414
-2.71913e-06
0.000114258
-2.51805e-06
0.000113195
-2.19911e-06
0.000112233
-1.8185e-06
0.0001114
-1.4172e-06
0.000110645
-1.06095e-06
0.000110014
-7.61166e-07
0.000109361
-5.51459e-07
-4.64587e-07
8.9861e-05
-4.49916e-07
8.95793e-05
-5.36315e-07
8.92422e-05
-6.40886e-07
8.88388e-05
-7.66324e-07
8.83566e-05
-9.14197e-07
8.77838e-05
-1.08342e-06
8.71105e-05
-1.26844e-06
8.63337e-05
-1.45649e-06
8.54603e-05
-1.6257e-06
8.4512e-05
-1.747e-06
8.35238e-05
-1.79049e-06
8.25411e-05
-1.73641e-06
8.1607e-05
-1.58399e-06
8.07612e-05
-1.35325e-06
8.00195e-05
-1.07685e-06
7.93982e-05
-7.95934e-07
7.88717e-05
-5.34415e-07
7.8453e-05
-3.42473e-07
7.80672e-05
-1.65624e-07
-1.51721e-07
6.4133e-05
-2.60835e-07
6.39076e-05
-3.10884e-07
6.36381e-05
-3.71438e-07
6.33158e-05
-4.44063e-07
6.29312e-05
-5.29542e-07
6.24747e-05
-6.26891e-07
6.1939e-05
-7.32799e-07
6.13218e-05
-8.39269e-07
6.06291e-05
-9.33012e-07
5.9879e-05
-9.96847e-07
5.91009e-05
-1.01242e-06
5.83333e-05
-9.68874e-07
5.76152e-05
-8.65867e-07
5.69805e-05
-7.18508e-07
5.64485e-05
-5.44864e-07
5.60284e-05
-3.75785e-07
5.57103e-05
-2.16362e-07
5.5482e-05
-1.14172e-07
5.53178e-05
-1.39355e-09
-2.09315e-08
4.48622e-05
-1.16641e-07
4.46901e-05
-1.38869e-07
4.44844e-05
-1.65679e-07
4.4238e-05
-1.97663e-07
4.39435e-05
-2.35023e-07
4.35936e-05
-2.7699e-07
4.31827e-05
-3.21939e-07
4.27092e-05
-3.65813e-07
4.21785e-05
-4.0232e-07
4.16053e-05
-4.23573e-07
4.10146e-05
-4.21755e-07
4.04392e-05
-3.93421e-07
3.9913e-05
-3.39721e-07
3.94644e-05
-2.69874e-07
3.91112e-05
-1.9165e-07
3.88558e-05
-1.20371e-07
3.86935e-05
-5.40662e-08
3.85984e-05
-1.9146e-08
3.85693e-05
2.77503e-08
6.82785e-09
3.06139e-05
3.04751e-05
3.03094e-05
3.01117e-05
2.98767e-05
2.95997e-05
2.92778e-05
2.8912e-05
2.85096e-05
2.80861e-05
2.76643e-05
2.72709e-05
2.69312e-05
2.66613e-05
2.64697e-05
2.63493e-05
2.62952e-05
2.62761e-05
2.63038e-05
9.00648e-06
-1.08897e-06
1.35781e-06
8.90273e-06
-1.13786e-06
1.24162e-06
9.02612e-06
-3.08226e-06
2.95889e-06
9.34966e-06
-6.30053e-06
5.977e-06
9.73079e-06
-1.05744e-05
1.01933e-05
1.00882e-05
-1.56054e-05
1.5248e-05
1.03757e-05
-1.98986e-05
1.9611e-05
1.05991e-05
-2.21966e-05
2.19732e-05
1.07938e-05
-2.19888e-05
2.17941e-05
1.09807e-05
-1.99735e-05
1.97865e-05
1.11562e-05
-1.70369e-05
1.68615e-05
1.13086e-05
-1.39722e-05
1.38198e-05
1.14307e-05
-1.1179e-05
1.1057e-05
1.15227e-05
-8.81203e-06
8.72004e-06
1.15889e-05
-6.97632e-06
6.91007e-06
1.16351e-05
-5.46773e-06
5.42159e-06
1.16697e-05
-4.52891e-06
4.49434e-06
1.16937e-05
-3.49057e-06
3.46656e-06
1.17216e-05
-3.42277e-06
3.3949e-06
-2.44603e-06
2.42407e-06
1.38689e-05
-1.11839e-06
1.38987e-05
-1.16773e-06
1.38433e-05
-3.02688e-06
1.39158e-05
-6.37302e-06
1.40981e-05
-1.07566e-05
1.42941e-05
-1.58014e-05
1.44443e-05
-2.00488e-05
1.45563e-05
-2.23087e-05
1.46736e-05
-2.21061e-05
1.48139e-05
-2.01138e-05
1.49631e-05
-1.71861e-05
1.50987e-05
-1.41077e-05
1.52057e-05
-1.1286e-05
1.52816e-05
-8.88794e-06
1.53299e-05
-7.02464e-06
1.53575e-05
-5.49531e-06
1.53734e-05
-4.54483e-06
1.53805e-05
-3.49764e-06
1.53934e-05
-3.4357e-06
-2.45958e-06
1.96761e-05
-1.25263e-06
1.99795e-05
-1.4711e-06
2.01374e-05
-3.18478e-06
2.01988e-05
-6.43447e-06
2.02023e-05
-1.076e-05
2.01506e-05
-1.57497e-05
2.00687e-05
-1.9967e-05
1.99988e-05
-2.22388e-05
1.99948e-05
-2.21022e-05
2.00612e-05
-2.01801e-05
2.01648e-05
-1.72898e-05
2.02655e-05
-1.42084e-05
2.03383e-05
-1.13588e-05
2.03772e-05
-8.92686e-06
2.03856e-05
-7.03304e-06
2.0373e-05
-5.4827e-06
2.03489e-05
-4.52071e-06
2.03202e-05
-3.46895e-06
2.02994e-05
-3.41489e-06
-2.45351e-06
2.7159e-05
-1.41685e-06
2.75519e-05
-1.86403e-06
2.78604e-05
-3.49329e-06
2.80272e-05
-6.60126e-06
2.80198e-05
-1.07527e-05
2.78175e-05
-1.55474e-05
2.75276e-05
-1.96771e-05
2.72737e-05
-2.19849e-05
2.7148e-05
-2.19765e-05
2.71477e-05
-2.01799e-05
2.72178e-05
-1.73598e-05
2.72909e-05
-1.42815e-05
2.73256e-05
-1.13935e-05
2.7312e-05
-8.91318e-06
2.72558e-05
-6.97689e-06
2.71742e-05
-5.40105e-06
2.70782e-05
-4.42473e-06
2.69844e-05
-3.37514e-06
2.68977e-05
-3.32816e-06
-2.40687e-06
3.7166e-05
-1.60905e-06
3.75735e-05
-2.27151e-06
3.79181e-05
-3.83788e-06
3.80797e-05
-6.76287e-06
3.80154e-05
-1.06883e-05
3.76858e-05
-1.52178e-05
3.72307e-05
-1.9222e-05
3.68222e-05
-2.15764e-05
3.65929e-05
-2.17472e-05
3.65457e-05
-2.01327e-05
3.66182e-05
-1.74324e-05
3.67151e-05
-1.43784e-05
3.67605e-05
-1.14389e-05
3.67216e-05
-8.87431e-06
3.66008e-05
-6.85609e-06
3.64296e-05
-5.22979e-06
3.62262e-05
-4.22136e-06
3.603e-05
-3.17891e-06
3.58282e-05
-3.12635e-06
-2.28404e-06
5.06612e-05
-1.83079e-06
5.10509e-05
-2.66118e-06
5.13925e-05
-4.17954e-06
5.15052e-05
-6.8755e-06
5.13356e-05
-1.05187e-05
5.085e-05
-1.47323e-05
5.01905e-05
-1.85624e-05
4.9569e-05
-2.09549e-05
4.91559e-05
-2.13342e-05
4.89863e-05
-1.99631e-05
4.90099e-05
-1.74559e-05
4.91229e-05
-1.44914e-05
4.92347e-05
-1.15508e-05
4.92692e-05
-8.9088e-06
4.9174e-05
-6.76091e-06
4.89625e-05
-5.01822e-06
4.86534e-05
-3.91229e-06
4.83343e-05
-2.85978e-06
4.79629e-05
-2.75494e-06
-2.03654e-06
6.88525e-05
-2.07003e-06
6.9192e-05
-3.00068e-06
6.94882e-05
-4.47575e-06
6.95201e-05
-6.90741e-06
6.92136e-05
-1.02122e-05
6.85249e-05
-1.40437e-05
6.75907e-05
-1.76282e-05
6.66531e-05
-2.00173e-05
6.59281e-05
-2.06091e-05
6.5492e-05
-1.9527e-05
6.53183e-05
-1.72823e-05
6.53217e-05
-1.44948e-05
6.54096e-05
-1.16387e-05
6.55072e-05
-9.00644e-06
6.55406e-05
-6.79429e-06
6.54762e-05
-4.95379e-06
6.52378e-05
-3.67385e-06
6.49053e-05
-2.5273e-06
6.43809e-05
-2.23058e-06
-1.63961e-06
9.29972e-05
-2.28089e-06
9.32297e-05
-3.23311e-06
9.33896e-05
-4.63567e-06
9.32555e-05
-6.77331e-06
9.27057e-05
-9.66234e-06
9.16917e-05
-1.30297e-05
9.03354e-05
-1.62719e-05
8.89059e-05
-1.85878e-05
8.76792e-05
-1.93824e-05
8.67945e-05
-1.86423e-05
8.62635e-05
-1.67512e-05
8.60137e-05
-1.4245e-05
8.59453e-05
-1.15703e-05
8.59796e-05
-9.04075e-06
8.60371e-05
-6.8517e-06
8.61053e-05
-5.02206e-06
8.6096e-05
-3.66451e-06
8.60727e-05
-2.504e-06
8.58143e-05
-1.97218e-06
-1.34376e-06
0.000122461
-2.43853e-06
0.000122569
-3.34092e-06
0.000122548
-4.61473e-06
0.000122202
-6.42724e-06
0.000121375
-8.83505e-06
0.000120007
-1.16616e-05
0.000118204
-1.44696e-05
0.00011625
-1.66332e-05
0.000114473
-1.76058e-05
0.000113081
-1.725e-05
0.000112132
-1.58024e-05
0.000111568
-1.36812e-05
0.000111289
-1.12913e-05
0.000111187
-8.93871e-06
0.000111182
-6.8467e-06
0.000111221
-5.06102e-06
0.000111272
-3.71525e-06
0.000111341
-2.57268e-06
0.000111385
-2.01646e-06
-1.42482e-06
0.000157529
0.000157493
0.000157281
0.000156737
0.000155707
0.000154126
0.000152081
0.000149831
0.000147716
0.00014598
0.000144722
0.000143909
0.00014345
0.000143227
0.00014315
0.000143147
0.00014318
0.000143239
0.000143297
7.26249e-08
-7.26234e-08
-8.7029e-08
1.59653e-07
-5.06756e-07
4.19729e-07
-7.43899e-07
2.37144e-07
-8.30141e-07
8.6241e-08
-8.03288e-07
-2.68531e-08
-6.39145e-07
-1.64144e-07
-3.9113e-07
-2.48017e-07
-1.21875e-07
-2.69255e-07
1.11024e-07
-2.329e-07
2.90958e-07
-1.79935e-07
4.48046e-07
-1.57089e-07
5.91934e-07
-1.43888e-07
7.03531e-07
-1.11597e-07
7.88958e-07
-8.54265e-08
8.53327e-07
-6.43695e-08
9.06272e-07
-5.29448e-08
9.46712e-07
-4.04396e-08
9.84943e-07
-3.82314e-08
-2.78393e-08
-6.04603e-08
-1.21607e-08
-5.03244e-07
6.02435e-07
-1.07651e-06
9.92997e-07
-1.34483e-06
5.05463e-07
-1.37773e-06
1.19147e-07
-1.23954e-06
-1.65049e-07
-9.35782e-07
-4.67902e-07
-5.26445e-07
-6.57355e-07
-8.73302e-08
-7.08371e-07
3.18369e-07
-6.38601e-07
6.5611e-07
-5.17675e-07
9.20707e-07
-4.21686e-07
1.12311e-06
-3.46286e-07
1.27997e-06
-2.68465e-07
1.40223e-06
-2.07687e-07
1.49711e-06
-1.59246e-07
1.57484e-06
-1.30673e-07
1.63352e-06
-9.91172e-08
1.69016e-06
-9.48689e-08
-6.82413e-08
-1.98014e-07
1.85856e-07
-8.53044e-07
1.25746e-06
-1.46741e-06
1.60737e-06
-1.70199e-06
7.40045e-07
-1.6934e-06
1.10556e-07
-1.48784e-06
-3.7061e-07
-1.09081e-06
-8.64936e-07
-5.68533e-07
-1.17963e-06
-1.0339e-08
-1.26657e-06
5.11837e-07
-1.16078e-06
9.55327e-07
-9.61165e-07
1.30641e-06
-7.72765e-07
1.57282e-06
-6.12698e-07
1.77845e-06
-4.74099e-07
1.93913e-06
-3.68363e-07
2.06401e-06
-2.84123e-07
2.16619e-06
-2.32859e-07
2.24334e-06
-1.76266e-07
2.31791e-06
-1.69439e-07
-1.21105e-07
-3.50117e-07
5.35976e-07
-1.17499e-06
2.08234e-06
-1.81108e-06
2.24345e-06
-2.0121e-06
9.41066e-07
-1.97832e-06
7.67786e-08
-1.71026e-06
-6.38674e-07
-1.21813e-06
-1.35706e-06
-5.76497e-07
-1.82127e-06
1.07861e-07
-1.95093e-06
7.50851e-07
-1.80377e-06
1.30242e-06
-1.51274e-06
1.74719e-06
-1.21753e-06
2.09006e-06
-9.55566e-07
2.35476e-06
-7.38799e-07
2.56167e-06
-5.7527e-07
2.72227e-06
-4.44724e-07
2.85369e-06
-3.64285e-07
2.95314e-06
-2.75714e-07
3.0492e-06
-2.65501e-07
-1.88908e-07
-5.32547e-07
1.06853e-06
-1.49365e-06
3.04344e-06
-2.12762e-06
2.87743e-06
-2.30661e-06
1.12006e-06
-2.251e-06
2.11655e-08
-1.91371e-06
-9.75957e-07
-1.31363e-06
-1.95715e-06
-5.3495e-07
-2.59995e-06
2.94121e-07
-2.78e-06
1.07468e-06
-2.58433e-06
1.74796e-06
-2.18602e-06
2.2977e-06
-1.76727e-06
2.72773e-06
-1.3856e-06
3.06089e-06
-1.07196e-06
3.32166e-06
-8.3604e-07
3.5242e-06
-6.47264e-07
3.69019e-06
-5.30275e-07
3.81604e-06
-4.01563e-07
3.93761e-06
-3.87075e-07
-2.74485e-07
-7.40036e-07
1.80857e-06
-1.80296e-06
4.10636e-06
-2.41356e-06
3.48802e-06
-2.58219e-06
1.28869e-06
-2.50071e-06
-6.03155e-08
-2.08247e-06
-1.3942e-06
-1.35611e-06
-2.68351e-06
-4.17376e-07
-3.53868e-06
5.8015e-07
-3.77753e-06
1.51991e-06
-3.52409e-06
2.33271e-06
-2.99882e-06
3.00126e-06
-2.43583e-06
3.53037e-06
-1.9147e-06
3.94258e-06
-1.48417e-06
4.26605e-06
-1.15951e-06
4.51771e-06
-8.98931e-07
4.72447e-06
-7.37034e-07
4.88159e-06
-5.58675e-07
5.03345e-06
-5.38943e-07
-3.81266e-07
-9.559e-07
2.76448e-06
-2.0834e-06
5.23386e-06
-2.6558e-06
4.06043e-06
-2.82022e-06
1.4531e-06
-2.70174e-06
-1.78796e-07
-2.18515e-06
-1.91078e-06
-1.30865e-06
-3.56e-06
-1.82136e-07
-4.66521e-06
1.01163e-06
-4.97129e-06
2.13549e-06
-4.64796e-06
3.10848e-06
-3.9718e-06
3.91173e-06
-3.23909e-06
4.55253e-06
-2.5555e-06
5.05483e-06
-1.98647e-06
5.45053e-06
-1.5552e-06
5.75922e-06
-1.20762e-06
6.01354e-06
-9.91359e-07
6.20733e-06
-7.52459e-07
6.3949e-06
-7.2652e-07
-5.13108e-07
-1.15434e-06
3.91883e-06
-2.30195e-06
6.38147e-06
-2.82469e-06
4.58317e-06
-2.98352e-06
1.61193e-06
-2.80935e-06
-3.5296e-07
-2.16974e-06
-2.55039e-06
-1.11265e-06
-4.6171e-06
2.34275e-07
-6.01214e-06
1.65516e-06
-6.39217e-06
2.9902e-06
-5.983e-06
4.14549e-06
-5.12709e-06
5.10038e-06
-4.19398e-06
5.86593e-06
-3.32105e-06
6.46932e-06
-2.58985e-06
6.94675e-06
-2.03264e-06
7.32044e-06
-1.58131e-06
7.62924e-06
-1.30016e-06
7.86529e-06
-9.88513e-07
8.09428e-06
-9.55509e-07
-6.74033e-07
-1.30584e-06
5.22468e-06
-2.40562e-06
7.48125e-06
-2.85864e-06
5.0362e-06
-3.00002e-06
1.75331e-06
-2.74193e-06
-6.11058e-07
-1.9461e-06
-3.34622e-06
-6.71621e-07
-5.89158e-06
9.31455e-07
-7.61521e-06
2.6114e-06
-8.07212e-06
4.18427e-06
-7.55588e-06
5.54312e-06
-6.48593e-06
6.66581e-06
-5.31668e-06
7.5684e-06
-4.22365e-06
8.28274e-06
-3.30419e-06
8.85025e-06
-2.60014e-06
9.29596e-06
-2.02702e-06
9.66538e-06
-1.66957e-06
9.94875e-06
-1.27189e-06
1.02245e-05
-1.23122e-06
-8.67835e-07
-1.37928e-06
6.60397e-06
-2.31194e-06
8.4139e-06
-2.64862e-06
5.37288e-06
-2.73709e-06
1.84178e-06
-2.34759e-06
-1.00056e-06
-1.34889e-06
-4.34492e-06
1.86305e-07
-7.42678e-06
2.0799e-06
-9.50881e-06
4.04534e-06
-1.00376e-05
5.87529e-06
-9.38583e-06
7.45204e-06
-8.06268e-06
8.75284e-06
-6.61748e-06
9.79986e-06
-5.27066e-06
1.06307e-05
-4.13501e-06
1.12928e-05
-3.26224e-06
1.18145e-05
-2.54869e-06
1.2248e-05
-2.10313e-06
1.25818e-05
-1.60563e-06
1.29076e-05
-1.55703e-06
-1.09711e-06
-1.26694e-06
7.87091e-06
-1.88854e-06
9.03551e-06
-2.0135e-06
5.49784e-06
-1.96347e-06
1.79176e-06
-1.35716e-06
-1.60688e-06
-8.41817e-08
-5.61789e-06
1.76437e-06
-9.27534e-06
3.97473e-06
-1.17192e-05
6.23481e-06
-1.22976e-05
8.32001e-06
-1.1471e-05
1.01095e-05
-9.85213e-06
1.15822e-05
-8.09019e-06
1.27675e-05
-6.456e-06
1.37092e-05
-5.07675e-06
1.44613e-05
-4.01426e-06
1.50554e-05
-3.14278e-06
1.55502e-05
-2.59802e-06
1.59327e-05
-1.98805e-06
1.63072e-05
-1.93161e-06
-1.36127e-06
-9.74312e-07
8.84523e-06
-9.26922e-07
8.98812e-06
-6.52139e-07
5.22307e-06
-2.77961e-07
1.41759e-06
6.97871e-07
-2.58271e-06
2.35704e-06
-7.27706e-06
4.57738e-06
-1.14957e-05
7.10832e-06
-1.42501e-05
9.63296e-06
-1.48223e-05
1.1928e-05
-1.37661e-05
1.38848e-05
-1.18089e-05
1.54896e-05
-9.69494e-06
1.67798e-05
-7.74622e-06
1.7805e-05
-6.1019e-06
1.86243e-05
-4.83357e-06
1.92726e-05
-3.79108e-06
1.98136e-05
-3.13905e-06
2.02334e-05
-2.40787e-06
2.06461e-05
-2.34433e-06
-1.65355e-06
4.56192e-08
8.79962e-06
9.0985e-07
8.1239e-06
1.98066e-06
4.15227e-06
3.05881e-06
3.39453e-07
4.67105e-06
-4.19497e-06
6.86477e-06
-9.47078e-06
9.49398e-06
-1.41249e-05
1.22851e-05
-1.70413e-05
1.49599e-05
-1.74971e-05
1.73352e-05
-1.61415e-05
1.93406e-05
-1.38143e-05
2.09777e-05
-1.1332e-05
2.22917e-05
-9.06027e-06
2.33347e-05
-7.1449e-06
2.41677e-05
-5.66655e-06
2.48269e-05
-4.45023e-06
2.53774e-05
-3.68958e-06
2.58066e-05
-2.83708e-06
2.62303e-05
-2.76801e-06
-1.95629e-06
7.07638e-07
8.092e-06
4.45357e-06
4.37797e-06
7.18216e-06
1.42369e-06
9.60274e-06
-2.08112e-06
1.22071e-05
-6.79938e-06
1.50327e-05
-1.22964e-05
1.79678e-05
-1.706e-05
2.07804e-05
-1.98538e-05
2.33145e-05
-2.00312e-05
2.54883e-05
-1.83153e-05
2.73015e-05
-1.56274e-05
2.87761e-05
-1.28066e-05
2.99587e-05
-1.02429e-05
3.08953e-05
-8.08144e-06
3.16405e-05
-6.41178e-06
3.22281e-05
-5.03783e-06
3.27181e-05
-4.17952e-06
3.31021e-05
-3.22106e-06
3.34825e-05
-3.14846e-06
-2.23411e-06
9.44981e-06
1.50694e-05
1.9452e-05
2.33479e-05
2.67417e-05
2.96934e-05
3.22444e-05
3.43637e-05
3.61266e-05
3.75978e-05
3.88318e-05
3.98449e-05
4.0659e-05
4.12976e-05
4.17959e-05
4.21797e-05
4.24945e-05
4.274e-05
4.29864e-05
)
;

boundaryField
{
    inlet
    {
        type            calculated;
        value           nonuniform List<scalar> 
20
(
-1.49145e-05
-1.92628e-05
-2.48788e-05
-3.21322e-05
-4.15004e-05
-5.35998e-05
-6.92268e-05
-8.94099e-05
-0.000115477
-0.000149145
-0.000447434
-0.000346432
-0.00026823
-0.00020768
-0.000160799
-0.000124501
-9.63967e-05
-7.46365e-05
-5.77883e-05
-4.47434e-05
)
;
    }
    outlet
    {
        type            calculated;
        value           nonuniform List<scalar> 
35
(
1.01278e-06
1.73056e-06
2.37077e-06
3.11701e-06
4.02319e-06
5.14024e-06
6.52675e-06
8.2552e-06
1.04183e-05
1.31369e-05
1.65714e-05
2.09384e-05
2.65331e-05
3.37603e-05
4.31764e-05
1.17435e-05
1.5407e-05
2.02933e-05
2.6851e-05
3.57053e-05
4.77154e-05
6.3984e-05
8.55185e-05
0.000111466
0.000143419
0.000430938
0.000333598
0.00025832
0.000199518
0.000150393
0.000108814
7.77543e-05
5.5187e-05
3.85415e-05
2.63106e-05
)
;
    }
    frontAndBack
    {
        type            empty;
        value           nonuniform 0();
    }
    noslipwall
    {
        type            calculated;
        value           uniform 0;
    }
}


// ************************************************************************* //
