/*--------------------------------*- C++ -*----------------------------------*\
  =========                 |
  \\      /  F ield         | OpenFOAM: The Open Source CFD Toolbox
   \\    /   O peration     | Website:  https://openfoam.org
    \\  /    A nd           | Version:  7
     \\/     M anipulation  |
\*---------------------------------------------------------------------------*/
FoamFile
{
    version     2.0;
    format      ascii;
    class       volVectorField;
    location    "486";
    object      U2;
}
// * * * * * * * * * * * * * * * * * * * * * * * * * * * * * * * * * * * * * //

dimensions      [0 1 -1 0 0 0 0];

internalField   nonuniform List<vector> 
900
(
(28.7589 0.0609378 0)
(24.998 0.00507092 0)
(24.5017 0.000992838 0)
(24.2301 0.000743181 0)
(24.1358 0.000219004 0)
(24.1502 -0.00096889 0)
(24.358 -0.00464841 0)
(24.6736 -0.00462185 0)
(24.9752 -0.0200316 0)
(25.7823 -0.0531643 0)
(33.2115 0.0344856 0)
(29.2064 0.0088522 0)
(28.5317 0.00303615 0)
(28.1868 0.00206177 0)
(28.0566 0.000610264 0)
(28.0512 -0.00352182 0)
(28.2684 -0.0119695 0)
(28.5465 -0.0185555 0)
(29.0052 -0.0710973 0)
(29.4382 -0.00600665 0)
(36.728 0.0623709 0)
(32.6835 0.0175281 0)
(31.7472 0.00667046 0)
(31.2877 0.00454742 0)
(31.1002 0.001769 0)
(31.0611 -0.00621328 0)
(31.2611 -0.0201619 0)
(31.5148 -0.0435426 0)
(31.9694 -0.0928883 0)
(32.3776 -0.130407 0)
(39.3843 0.0881471 0)
(35.6758 0.0293412 0)
(34.4881 0.0128449 0)
(33.8954 0.00885353 0)
(33.6363 0.0041419 0)
(33.558 -0.00868508 0)
(33.7199 -0.0310863 0)
(33.961 -0.0667251 0)
(34.36 -0.147244 0)
(34.7611 -0.209912 0)
(41.3108 0.105604 0)
(38.4484 0.0444038 0)
(37.1088 0.0229499 0)
(36.3825 0.0162358 0)
(36.0408 0.0086466 0)
(35.9208 -0.010376 0)
(36.0324 -0.0435642 0)
(36.2596 -0.0965594 0)
(36.6024 -0.206213 0)
(36.97 -0.2974 0)
(42.4857 0.113318 0)
(40.9514 0.061345 0)
(39.6813 0.0378 0)
(38.865 0.0280991 0)
(38.4428 0.0164541 0)
(38.2811 -0.0101201 0)
(38.3406 -0.0572023 0)
(38.543 -0.131402 0)
(38.8368 -0.269208 0)
(39.1535 -0.398776 0)
(42.2699 0.104489 0)
(42.6709 0.072897 0)
(42.0357 0.0561357 0)
(41.2954 0.0461498 0)
(40.8397 0.0298514 0)
(40.6512 -0.00596889 0)
(40.6713 -0.0706809 0)
(40.8413 -0.17032 0)
(41.0887 -0.337807 0)
(41.346 -0.507423 0)
(41.9911 0.0960826 0)
(42.8517 0.0690057 0)
(43.2673 0.0629872 0)
(43.1595 0.0603374 0)
(42.957 0.0449986 0)
(42.8564 0.00272629 0)
(42.8838 -0.0793885 0)
(43.0259 -0.206114 0)
(43.2201 -0.399829 0)
(43.4057 -0.602349 0)
(41.9939 0.0874161 0)
(42.7635 0.0606212 0)
(43.3023 0.0559469 0)
(43.5155 0.0562196 0)
(43.6224 0.0414937 0)
(43.7361 -0.00650989 0)
(43.8808 -0.105189 0)
(44.0614 -0.25765 0)
(44.2399 -0.469059 0)
(44.3762 -0.68708 0)
(41.9974 0.07417 0)
(42.7636 0.0502506 0)
(43.2949 0.0462242 0)
(43.5119 0.0455368 0)
(43.6389 0.0277321 0)
(43.7693 -0.0290623 0)
(43.9143 -0.145234 0)
(44.066 -0.321736 0)
(44.1956 -0.54428 0)
(44.2752 -0.763074 0)
(41.9967 0.0436237 0)
(42.7606 0.0277208 0)
(43.293 0.0249661 0)
(43.5076 0.0228436 0)
(43.6268 0.00147371 0)
(43.7334 -0.0656282 0)
(43.829 -0.196773 0)
(43.8965 -0.381013 0)
(43.9251 -0.584385 0)
(43.9164 -0.766305 0)
(41.9963 0.00297888 0)
(42.7592 -0.00161295 0)
(43.2918 -0.00302969 0)
(43.5038 -0.0067518 0)
(43.6105 -0.0302133 0)
(43.6826 -0.101113 0)
(43.716 -0.230385 0)
(43.7063 -0.392502 0)
(43.6673 -0.548022 0)
(43.6159 -0.672526 0)
(41.9965 -0.0283716 0)
(42.7599 -0.0244703 0)
(43.2922 -0.0249798 0)
(43.5022 -0.0294018 0)
(43.6 -0.0507108 0)
(43.6493 -0.113465 0)
(43.6464 -0.221751 0)
(43.5981 -0.34885 0)
(43.5284 -0.464154 0)
(43.4578 -0.553491 0)
(41.9968 -0.052626 0)
(42.7612 -0.0421023 0)
(43.2932 -0.0422066 0)
(43.5024 -0.0468229 0)
(43.5948 -0.0641062 0)
(43.6302 -0.115018 0)
(43.606 -0.201755 0)
(43.5355 -0.301676 0)
(43.449 -0.390397 0)
(43.369 -0.457351 0)
(41.9956 -0.0719928 0)
(42.7657 -0.0554059 0)
(43.3001 -0.0549299 0)
(43.5007 -0.0599417 0)
(43.5743 -0.0734796 0)
(43.5822 -0.113267 0)
(43.5251 -0.181522 0)
(43.4233 -0.259595 0)
(43.3123 -0.327745 0)
(43.2163 -0.37832 0)
(42.0214 -0.0876991 0)
(42.8014 -0.0685076 0)
(43.1356 -0.0646042 0)
(43.0603 -0.0660772 0)
(42.8921 -0.0731895 0)
(42.7138 -0.100475 0)
(42.5155 -0.149994 0)
(42.3083 -0.207039 0)
(42.1222 -0.256546 0)
(41.9748 -0.293107 0)
(42.2257 -0.0974772 0)
(42.0202 -0.0711243 0)
(41.4189 -0.0566452 0)
(40.8292 -0.0506378 0)
(40.4146 -0.0511075 0)
(40.1126 -0.0676873 0)
(39.8409 -0.101048 0)
(39.5843 -0.139959 0)
(39.3642 -0.173506 0)
(39.1941 -0.197988 0)
(41.3216 -0.0726255 0)
(39.3837 -0.0484761 0)
(38.3686 -0.0351004 0)
(37.7232 -0.0297072 0)
(37.3123 -0.029728 0)
(37.0163 -0.0405924 0)
(36.7438 -0.0623136 0)
(36.4813 -0.0873965 0)
(36.2543 -0.108789 0)
(36.0785 -0.124309 0)
(38.9208 -0.0381809 0)
(35.8098 -0.0241166 0)
(34.7063 -0.017595 0)
(34.0856 -0.0149082 0)
(33.7058 -0.0149602 0)
(33.4348 -0.020874 0)
(33.1792 -0.0326302 0)
(32.9266 -0.046095 0)
(32.705 -0.0574559 0)
(32.5324 -0.065595 0)
(35.3182 -0.163758 0)
(31.8003 -0.0283729 0)
(30.7396 -0.00585403 0)
(30.1543 -0.00425717 0)
(29.8008 -0.00441922 0)
(29.5424 -0.0066392 0)
(29.2859 -0.0108384 0)
(29.0252 -0.0154173 0)
(28.7943 -0.0190932 0)
(28.6141 -0.0216511 0)
(43.8898 -0.909024 0)
(43.8491 -1.04536 0)
(43.7811 -1.20863 0)
(43.6715 -1.39834 0)
(43.501 -1.60564 0)
(43.2502 -1.80616 0)
(42.9104 -1.96148 0)
(42.4938 -2.02971 0)
(42.0372 -1.98272 0)
(41.5931 -1.82216 0)
(41.2084 -1.57861 0)
(40.9093 -1.2943 0)
(40.6967 -1.0098 0)
(40.5594 -0.751579 0)
(40.4759 -0.538693 0)
(40.4331 -0.370109 0)
(40.4092 -0.251811 0)
(40.4085 -0.163105 0)
(40.4055 -0.117047 0)
(40.4299 -0.0824824 0)
(43.5662 -0.763224 0)
(43.5115 -0.845368 0)
(43.4366 -0.939924 0)
(43.3333 -1.04581 0)
(43.1915 -1.15891 0)
(43.0007 -1.26962 0)
(42.7542 -1.36191 0)
(42.4537 -1.41505 0)
(42.1141 -1.40998 0)
(41.7622 -1.33692 0)
(41.4291 -1.20232 0)
(41.1396 -1.02433 0)
(40.906 -0.829264 0)
(40.7297 -0.637751 0)
(40.6039 -0.470741 0)
(40.5197 -0.331341 0)
(40.466 -0.231028 0)
(40.437 -0.153684 0)
(40.4227 -0.113685 0)
(40.4238 -0.0848633 0)
(43.3979 -0.617385 0)
(43.3375 -0.67437 0)
(43.2605 -0.739013 0)
(43.1612 -0.810502 0)
(43.0327 -0.88631 0)
(42.8688 -0.960871 0)
(42.6646 -1.02494 0)
(42.4197 -1.06564 0)
(42.1408 -1.06982 0)
(41.8426 -1.02788 0)
(41.546 -0.9404 0)
(41.271 -0.816215 0)
(41.0332 -0.673674 0)
(40.8392 -0.52764 0)
(40.6912 -0.397296 0)
(40.5829 -0.284894 0)
(40.5114 -0.204403 0)
(40.4645 -0.13974 0)
(40.443 -0.108914 0)
(40.4293 -0.0847043 0)
(43.3052 -0.504196 0)
(43.2436 -0.54529 0)
(43.1672 -0.591333 0)
(43.0715 -0.641683 0)
(42.9512 -0.694583 0)
(42.8014 -0.74634 0)
(42.6183 -0.791144 0)
(42.4001 -0.820598 0)
(42.1506 -0.825892 0)
(41.8783 -0.799235 0)
(41.5994 -0.739519 0)
(41.3292 -0.650517 0)
(41.0858 -0.545316 0)
(40.8752 -0.433688 0)
(40.7092 -0.33282 0)
(40.5757 -0.242764 0)
(40.4888 -0.17944 0)
(40.4128 -0.125312 0)
(40.3857 -0.10253 0)
(40.3285 -0.0815476 0)
(43.142 -0.413391 0)
(43.0716 -0.443948 0)
(42.9855 -0.477966 0)
(42.8794 -0.514996 0)
(42.7485 -0.553802 0)
(42.5877 -0.591833 0)
(42.3932 -0.625082 0)
(42.1618 -0.647677 0)
(41.8956 -0.653146 0)
(41.5991 -0.635282 0)
(41.2866 -0.592243 0)
(40.9686 -0.525809 0)
(40.6689 -0.445222 0)
(40.386 -0.357981 0)
(40.1504 -0.277758 0)
(39.9244 -0.205143 0)
(39.7698 -0.153269 0)
(39.5686 -0.108212 0)
(39.4963 -0.088736 0)
(39.2313 -0.0689004 0)
(41.866 -0.318349 0)
(41.7657 -0.340232 0)
(41.6458 -0.364453 0)
(41.5014 -0.390664 0)
(41.3271 -0.417926 0)
(41.1174 -0.444406 0)
(40.8677 -0.467183 0)
(40.5742 -0.482105 0)
(40.2377 -0.484367 0)
(39.8619 -0.469503 0)
(39.4607 -0.435686 0)
(39.0459 -0.384445 0)
(38.6436 -0.321939 0)
(38.2566 -0.254956 0)
(37.919 -0.192316 0)
(37.596 -0.137294 0)
(37.3544 -0.0957818 0)
(37.0702 -0.0636167 0)
(36.9385 -0.0455726 0)
(36.5972 -0.0333379 0)
(39.0701 -0.214766 0)
(38.9567 -0.229316 0)
(38.8221 -0.245491 0)
(38.6613 -0.263018 0)
(38.4687 -0.281198 0)
(38.239 -0.298753 0)
(37.9674 -0.313658 0)
(37.6504 -0.323087 0)
(37.2887 -0.323712 0)
(36.8869 -0.312511 0)
(36.4594 -0.288115 0)
(36.0204 -0.251754 0)
(35.5971 -0.207502 0)
(35.1977 -0.160657 0)
(34.854 -0.116669 0)
(34.5416 -0.0792318 0)
(34.3122 -0.0500949 0)
(34.0711 -0.0303686 0)
(33.9586 -0.0163768 0)
(33.7113 -0.0123331 0)
(35.9502 -0.134957 0)
(35.833 -0.144203 0)
(35.6941 -0.154474 0)
(35.5281 -0.165562 0)
(35.3296 -0.17699 0)
(35.093 -0.187941 0)
(34.8137 -0.19711 0)
(34.488 -0.202707 0)
(34.1171 -0.20258 0)
(33.706 -0.194828 0)
(33.2699 -0.178507 0)
(32.8254 -0.154522 0)
(32.4009 -0.125386 0)
(32.0099 -0.0948574 0)
(31.6825 -0.0661223 0)
(31.4046 -0.0423196 0)
(31.2122 -0.023465 0)
(31.0406 -0.012159 0)
(30.9682 -0.00264887 0)
(30.8425 -0.00263888 0)
(32.4062 -0.0711067 0)
(32.2908 -0.0759052 0)
(32.1538 -0.0812747 0)
(31.9901 -0.087061 0)
(31.7939 -0.0929812 0)
(31.56 -0.0985798 0)
(31.2835 -0.103132 0)
(30.9611 -0.105658 0)
(30.594 -0.104981 0)
(30.1881 -0.100104 0)
(29.7591 -0.0905642 0)
(29.3265 -0.0769882 0)
(28.9199 -0.060836 0)
(28.5575 -0.0443229 0)
(28.2673 -0.0290992 0)
(28.0417 -0.0170051 0)
(27.902 -0.00757025 0)
(27.8045 -0.00270911 0)
(27.7785 0.0019886 0)
(27.7559 0.000618934 0)
(28.4826 -0.0233604 0)
(28.3625 -0.024851 0)
(28.2205 -0.0265546 0)
(28.0511 -0.0283891 0)
(27.8491 -0.0302231 0)
(27.6097 -0.0318888 0)
(27.3292 -0.0331235 0)
(27.006 -0.0335974 0)
(26.6441 -0.0329 0)
(26.2525 -0.0307399 0)
(25.8507 -0.0269827 0)
(25.4606 -0.0219944 0)
(25.1118 -0.0162948 0)
(24.8201 -0.0108486 0)
(24.6064 -0.00599721 0)
(24.459 -0.00262207 0)
(24.388 8.29201e-05 0)
(24.3559 0.000783254 0)
(24.3679 0.00213945 0)
(24.3992 0.000923808 0)
(25.5836 -0.640141 0)
(24.5616 -0.503985 0)
(24.7131 -0.918701 0)
(25.5568 -1.64505 0)
(26.5854 -2.48893 0)
(27.6836 -3.30887 0)
(28.5989 -3.79856 0)
(29.3023 -3.81495 0)
(29.874 -3.40362 0)
(30.4253 -2.78375 0)
(30.9606 -2.13819 0)
(31.4433 -1.57864 0)
(31.8461 -1.1363 0)
(32.1528 -0.80547 0)
(32.3855 -0.573039 0)
(32.5441 -0.403152 0)
(32.6625 -0.299332 0)
(32.7551 -0.206791 0)
(32.8089 -0.181286 0)
(32.9322 -0.115861 0)
(30.0399 -0.410848 0)
(29.9148 -0.422753 0)
(29.8045 -0.938478 0)
(29.8852 -1.72167 0)
(30.2029 -2.57681 0)
(30.693 -3.38392 0)
(31.0937 -3.8518 0)
(31.3699 -3.85045 0)
(31.6097 -3.43076 0)
(31.9101 -2.80735 0)
(32.256 -2.15849 0)
(32.5901 -1.59473 0)
(32.8721 -1.14796 0)
(33.0762 -0.813336 0)
(33.2218 -0.578042 0)
(33.3024 -0.406195 0)
(33.3574 -0.301332 0)
(33.3861 -0.207996 0)
(33.399 -0.182645 0)
(33.4603 -0.116872 0)
(32.8528 -0.473161 0)
(33.1346 -0.464827 0)
(33.5486 -0.9262 0)
(33.7922 -1.71391 0)
(33.8303 -2.58463 0)
(33.8196 -3.39463 0)
(33.7195 -3.85918 0)
(33.5776 -3.85682 0)
(33.5055 -3.44196 0)
(33.5794 -2.82312 0)
(33.757 -2.17481 0)
(33.9553 -1.60817 0)
(34.1201 -1.15727 0)
(34.2175 -0.818955 0)
(34.2673 -0.580863 0)
(34.2581 -0.407253 0)
(34.2377 -0.301545 0)
(34.188 -0.207741 0)
(34.1502 -0.182825 0)
(34.1333 -0.117278 0)
(35.1507 -0.510979 0)
(35.4454 -0.576448 0)
(35.9242 -1.00616 0)
(36.3215 -1.74825 0)
(36.4476 -2.58048 0)
(36.3253 -3.36143 0)
(35.9934 -3.82012 0)
(35.6068 -3.82889 0)
(35.3396 -3.43361 0)
(35.2735 -2.82948 0)
(35.3546 -2.18647 0)
(35.4761 -1.6177 0)
(35.5654 -1.16211 0)
(35.579 -0.819772 0)
(35.5411 -0.579019 0)
(35.4396 -0.404187 0)
(35.3366 -0.298113 0)
(35.1957 -0.20459 0)
(35.0984 -0.180491 0)
(34.981 -0.116367 0)
(37.3016 -0.575508 0)
(37.5619 -0.713934 0)
(37.9483 -1.11298 0)
(38.2786 -1.79961 0)
(38.3646 -2.57853 0)
(38.1839 -3.30858 0)
(37.7787 -3.74999 0)
(37.3088 -3.77249 0)
(36.96 -3.40731 0)
(36.8261 -2.82827 0)
(36.8712 -2.19751 0)
(36.9886 -1.62822 0)
(37.0859 -1.16545 0)
(37.0891 -0.815669 0)
(37.0135 -0.570305 0)
(36.8453 -0.394207 0)
(36.6702 -0.288268 0)
(36.4344 -0.196326 0)
(36.2761 -0.173417 0)
(36.0323 -0.112806 0)
(39.4297 -0.653497 0)
(39.6487 -0.846286 0)
(39.9335 -1.21856 0)
(40.1677 -1.83854 0)
(40.1859 -2.55262 0)
(39.9479 -3.22388 0)
(39.4927 -3.64594 0)
(38.9619 -3.6874 0)
(38.5309 -3.36151 0)
(38.3018 -2.81727 0)
(38.2666 -2.20773 0)
(38.3462 -1.64421 0)
(38.4652 -1.17653 0)
(38.5334 -0.816174 0)
(38.5259 -0.559607 0)
(38.3801 -0.377082 0)
(38.1912 -0.269001 0)
(37.8883 -0.17985 0)
(37.6884 -0.158124 0)
(37.304 -0.104358 0)
(41.563 -0.74338 0)
(41.7329 -0.969513 0)
(41.9222 -1.31989 0)
(42.061 -1.86504 0)
(42.0162 -2.50201 0)
(41.7334 -3.10489 0)
(41.2386 -3.49983 0)
(40.6462 -3.56001 0)
(40.1146 -3.2801 0)
(39.7542 -2.78129 0)
(39.584 -2.20387 0)
(39.5514 -1.65585 0)
(39.6038 -1.19174 0)
(39.6682 -0.827246 0)
(39.7335 -0.561066 0)
(39.7093 -0.368016 0)
(39.6542 -0.248608 0)
(39.4075 -0.156122 0)
(39.2421 -0.12969 0)
(38.7582 -0.0871567 0)
(43.5512 -0.825579 0)
(43.6564 -1.06171 0)
(43.7474 -1.3882 0)
(43.7781 -1.85412 0)
(43.6491 -2.40188 0)
(43.3003 -2.92518 0)
(42.7428 -3.28246 0)
(42.0666 -3.3584 0)
(41.4138 -3.13128 0)
(40.9024 -2.69158 0)
(40.5753 -2.16135 0)
(40.4051 -1.64321 0)
(40.3503 -1.19389 0)
(40.3485 -0.835061 0)
(40.3912 -0.56733 0)
(40.4054 -0.372522 0)
(40.4606 -0.244585 0)
(40.3926 -0.149396 0)
(40.4369 -0.108319 0)
(40.1401 -0.0673109 0)
(44.4645 -0.894416 0)
(44.5156 -1.1155 0)
(44.5328 -1.40486 0)
(44.4814 -1.78685 0)
(44.291 -2.2326 0)
(43.9071 -2.66333 0)
(43.3299 -2.97042 0)
(42.6279 -3.05659 0)
(41.9207 -2.88892 0)
(41.3248 -2.52488 0)
(40.8952 -2.06217 0)
(40.6294 -1.59201 0)
(40.4874 -1.17157 0)
(40.4305 -0.827587 0)
(40.4176 -0.565647 0)
(40.431 -0.373379 0)
(40.4474 -0.244354 0)
(40.4727 -0.150338 0)
(40.4912 -0.105244 0)
(40.5208 -0.0634775 0)
(44.3115 -0.950448 0)
(44.3168 -1.14126 0)
(44.2843 -1.38066 0)
(44.1874 -1.67545 0)
(43.981 -2.01007 0)
(43.625 -2.33479 0)
(43.1153 -2.57577 0)
(42.4978 -2.66036 0)
(41.8611 -2.5526 0)
(41.3001 -2.27854 0)
(40.8713 -1.90523 0)
(40.5841 -1.50479 0)
(40.4131 -1.13118 0)
(40.3279 -0.813436 0)
(40.2913 -0.56467 0)
(40.2889 -0.377091 0)
(40.2907 -0.249499 0)
(40.3135 -0.156083 0)
(40.3179 -0.10938 0)
(40.3614 -0.0709051 0)
(0.776332 -0.0863101 0)
(0.897475 -0.0151641 0)
(-3.155 0.0659311 0)
(-6.73196 0.0392624 0)
(-8.1711 0.0150078 0)
(-8.65509 0.00134405 0)
(-7.63521 -0.0147422 0)
(-5.3989 -0.0215084 0)
(-2.66685 -0.0197526 0)
(-0.0187338 -0.012861 0)
(2.04487 -0.00670033 0)
(3.64409 -0.00610287 0)
(5.3654 -0.00845804 0)
(6.70604 -0.00687932 0)
(7.73177 -0.00517257 0)
(8.53899 -0.00370853 0)
(9.13064 -0.002776 0)
(9.68535 -0.00192833 0)
(9.98304 -0.00166121 0)
(10.5397 -0.00109237 0)
(0.774929 -0.0072663 0)
(-1.62765 0.123619 0)
(-7.54146 0.219248 0)
(-11.3938 0.114325 0)
(-12.4954 0.0301572 0)
(-11.9895 -0.0222518 0)
(-9.93874 -0.0676731 0)
(-6.5887 -0.0874104 0)
(-2.7217 -0.0851484 0)
(1.14814 -0.068361 0)
(4.47388 -0.0488831 0)
(7.19541 -0.0352655 0)
(9.22789 -0.0259764 0)
(10.8163 -0.018115 0)
(12.0308 -0.0126558 0)
(12.9994 -0.00873644 0)
(13.7114 -0.00639527 0)
(14.3804 -0.00435326 0)
(14.739 -0.00374349 0)
(15.4113 -0.00242404 0)
(0.53536 0.02287 0)
(-3.43216 0.310191 0)
(-9.34711 0.387201 0)
(-12.2488 0.179333 0)
(-12.8914 0.0317875 0)
(-12.0619 -0.056441 0)
(-9.76966 -0.129104 0)
(-6.19257 -0.160453 0)
(-2.10915 -0.15564 0)
(1.99617 -0.127909 0)
(5.58944 -0.0949138 0)
(8.58718 -0.0687265 0)
(10.8154 -0.0484091 0)
(12.5458 -0.0332822 0)
(13.8689 -0.0231076 0)
(14.9247 -0.0158962 0)
(15.7008 -0.0115992 0)
(16.4289 -0.00786187 0)
(16.8197 -0.00676523 0)
(17.5489 -0.00433918 0)
(0.175122 0.111179 0)
(-4.52038 0.52946 0)
(-10.0116 0.575545 0)
(-12.0417 0.238752 0)
(-12.5216 0.0272443 0)
(-11.5479 -0.104284 0)
(-9.1769 -0.209415 0)
(-5.53593 -0.254452 0)
(-1.39937 -0.24535 0)
(2.76232 -0.203253 0)
(6.43187 -0.152845 0)
(9.52576 -0.110636 0)
(11.8984 -0.077862 0)
(13.7409 -0.0538746 0)
(15.1525 -0.0375886 0)
(16.2793 -0.0259625 0)
(17.1086 -0.0189785 0)
(17.8855 -0.0128713 0)
(18.3035 -0.0110943 0)
(19.0793 -0.00708194 0)
(-0.24842 0.268066 0)
(-5.255 0.820611 0)
(-9.98947 0.774008 0)
(-11.4168 0.292509 0)
(-11.8296 0.016965 0)
(-10.763 -0.168612 0)
(-8.36393 -0.313672 0)
(-4.71238 -0.376057 0)
(-0.575921 -0.361823 0)
(3.58363 -0.301836 0)
(7.26774 -0.229301 0)
(10.3905 -0.166576 0)
(12.8435 -0.117104 0)
(14.7579 -0.0811356 0)
(16.2292 -0.0566579 0)
(17.406 -0.0391751 0)
(18.2743 -0.0286466 0)
(19.0877 -0.0194242 0)
(19.5271 -0.0167477 0)
(20.3384 -0.0106476 0)
(-0.675337 0.499857 0)
(-5.68112 1.16462 0)
(-9.50468 0.966483 0)
(-10.5537 0.341893 0)
(-10.9153 0.000615791 0)
(-9.77901 -0.249511 0)
(-7.37309 -0.441013 0)
(-3.73793 -0.523911 0)
(0.369467 -0.503309 0)
(4.49428 -0.421867 0)
(8.15815 -0.322831 0)
(11.2694 -0.23561 0)
(13.7522 -0.165948 0)
(15.7045 -0.115228 0)
(17.2119 -0.0805882 0)
(18.4207 -0.0557945 0)
(19.316 -0.0408285 0)
(20.1553 -0.0276919 0)
(20.6109 -0.0238805 0)
(21.4488 -0.0151372 0)
(-1.04501 0.81084 0)
(-5.78593 1.53847 0)
(-8.70614 1.14914 0)
(-9.52111 0.388293 0)
(-9.81294 -0.0234502 0)
(-8.61345 -0.34995 0)
(-6.20615 -0.59525 0)
(-2.60322 -0.702049 0)
(1.45415 -0.673282 0)
(5.51944 -0.565983 0)
(9.13596 -0.43526 0)
(12.2063 -0.319071 0)
(14.6795 -0.225568 0)
(16.6389 -0.157089 0)
(18.1601 -0.110104 0)
(19.3841 -0.0763702 0)
(20.2948 -0.0559561 0)
(21.1496 -0.0379844 0)
(21.6165 -0.0327705 0)
(22.4721 -0.0207266 0)
(-1.30632 1.19897 0)
(-5.57008 1.92358 0)
(-7.67424 1.31802 0)
(-8.33206 0.432687 0)
(-8.52563 -0.0583 0)
(-7.25728 -0.474009 0)
(-4.84419 -0.781425 0)
(-1.28364 -0.915843 0)
(2.70465 -0.876605 0)
(6.68686 -0.73814 0)
(10.23 -0.569501 0)
(13.2337 -0.418928 0)
(15.6655 -0.297391 0)
(17.6035 -0.207809 0)
(19.1167 -0.146037 0)
(20.3389 -0.101523 0)
(21.2528 -0.0745156 0)
(22.1117 -0.0506533 0)
(22.5846 -0.0437367 0)
(23.4479 -0.0276182 0)
(-1.43077 1.64829 0)
(-5.05659 2.30242 0)
(-6.42248 1.46943 0)
(-6.95077 0.473567 0)
(-7.01352 -0.10929 0)
(-5.66356 -0.627137 0)
(-3.2378 -1.00467 0)
(0.26841 -1.16968 0)
(4.16479 -1.11694 0)
(8.03612 -0.941305 0)
(11.4768 -0.727854 0)
(14.3872 -0.536835 0)
(16.749 -0.382614 0)
(18.6386 -0.268328 0)
(20.1215 -0.189127 0)
(21.3233 -0.131822 0)
(22.2267 -0.096962 0)
(23.0767 -0.0660357 0)
(23.5489 -0.0570919 0)
(24.408 -0.0360127 0)
(-1.41669 2.14748 0)
(-4.2709 2.64718 0)
(-4.9284 1.593 0)
(-5.30228 0.504662 0)
(-5.18371 -0.18586 0)
(-3.72699 -0.818725 0)
(-1.27907 -1.27337 0)
(2.15316 -1.46991 0)
(5.92332 -1.39881 0)
(9.64265 -1.17853 0)
(12.9408 -0.912449 0)
(15.723 -0.674227 0)
(17.9821 -0.482201 0)
(19.7934 -0.339352 0)
(21.2205 -0.239923 0)
(22.3797 -0.167696 0)
(23.2559 -0.123643 0)
(24.0807 -0.0843988 0)
(24.5436 -0.0730934 0)
(25.3827 -0.0460786 0)
(-1.18431 2.63826 0)
(-3.2159 2.91606 0)
(-3.14935 1.66708 0)
(-3.27624 0.510116 0)
(-2.89345 -0.304095 0)
(-1.28188 -1.0623 0)
(1.20655 -1.59847 0)
(4.53668 -1.82415 0)
(8.12841 -1.7272 0)
(11.6324 -1.45279 0)
(14.7272 -1.12503 0)
(17.329 -0.832076 0)
(19.4405 -0.596646 0)
(21.1342 -0.421132 0)
(22.4724 -0.298577 0)
(23.5606 -0.209256 0)
(24.3876 -0.154655 0)
(25.1654 -0.105834 0)
(25.6073 -0.091847 0)
(26.4049 -0.0578929 0)
(-1.0195 3.10496 0)
(-1.8842 3.03604 0)
(-1.01695 1.65254 0)
(-0.70924 0.456959 0)
(0.0677247 -0.490822 0)
(1.9077 -1.37681 0)
(4.45843 -1.9907 0)
(7.64525 -2.23556 0)
(10.979 -2.10143 0)
(14.1741 -1.76182 0)
(16.9762 -1.36337 0)
(19.3217 -1.00852 0)
(21.2222 -0.724473 0)
(22.7449 -0.512528 0)
(23.9505 -0.364221 0)
(24.9297 -0.255875 0)
(25.6782 -0.189529 0)
(26.3806 -0.130042 0)
(26.7853 -0.113115 0)
(27.5124 -0.0713292 0)
(0.0281526 3.26176 0)
(-0.276943 2.90562 0)
(1.61531 1.47442 0)
(2.68419 0.281021 0)
(4.04512 -0.790418 0)
(6.19848 -1.78785 0)
(8.81224 -2.45972 0)
(11.775 -2.7004 0)
(14.7231 -2.51154 0)
(17.4707 -2.09435 0)
(19.8535 -1.61785 0)
(21.8374 -1.19618 0)
(23.4417 -0.860269 0)
(24.7237 -0.609601 0)
(25.7398 -0.433971 0)
(26.5619 -0.305475 0)
(27.194 -0.2267 0)
(27.7843 -0.155973 0)
(28.1304 -0.135981 0)
(28.7494 -0.0858718 0)
(-0.971604 3.30421 0)
(1.97667 2.20202 0)
(5.30568 0.939584 0)
(7.55513 -0.15727 0)
(9.69824 -1.28192 0)
(12.1823 -2.32887 0)
(14.7476 -3.00749 0)
(17.296 -3.20151 0)
(19.64 -2.93342 0)
(21.7367 -2.42673 0)
(23.5292 -1.86891 0)
(25.0154 -1.38017 0)
(26.217 -0.993066 0)
(27.1732 -0.704333 0)
(27.9312 -0.50191 0)
(28.5382 -0.353736 0)
(29.0077 -0.262859 0)
(29.4418 -0.18134 0)
(29.7017 -0.158362 0)
(30.1659 -0.10034 0)
(5.31602 1.80435 0)
(8.78431 0.743652 0)
(12.7408 -0.332033 0)
(15.9132 -1.20691 0)
(18.49 -2.12701 0)
(20.8321 -3.02499 0)
(22.8355 -3.59189 0)
(24.5073 -3.67408 0)
(25.8803 -3.30398 0)
(27.06 -2.70794 0)
(28.0736 -2.07852 0)
(28.9255 -1.53307 0)
(29.6206 -1.10318 0)
(30.1679 -0.782484 0)
(30.5993 -0.557528 0)
(30.9315 -0.392933 0)
(31.189 -0.292066 0)
(31.4192 -0.201935 0)
(31.5598 -0.176503 0)
(31.8182 -0.112486 0)
)
;

boundaryField
{
    inlet
    {
        type            fixedValue;
        value           uniform (41.92 0 0);
    }
    outlet
    {
        type            zeroGradient;
    }
    frontAndBack
    {
        type            empty;
    }
    noslipwall
    {
        type            noSlip;
    }
}


// ************************************************************************* //
