/*--------------------------------*- C++ -*----------------------------------*\
  =========                 |
  \\      /  F ield         | OpenFOAM: The Open Source CFD Toolbox
   \\    /   O peration     | Website:  https://openfoam.org
    \\  /    A nd           | Version:  7
     \\/     M anipulation  |
\*---------------------------------------------------------------------------*/
FoamFile
{
    version     2.0;
    format      ascii;
    class       volVectorField;
    location    "486";
    object      U3;
}
// * * * * * * * * * * * * * * * * * * * * * * * * * * * * * * * * * * * * * //

dimensions      [0 1 -1 0 0 0 0];

internalField   nonuniform List<vector> 
900
(
(30.7716 0.0647901 0)
(26.7986 0.00540985 0)
(26.2681 0.00106533 0)
(25.9784 0.000784439 0)
(25.8759 0.000213853 0)
(25.8912 -0.00100315 0)
(26.106 -0.00523276 0)
(26.4461 -0.00481652 0)
(26.7525 -0.021088 0)
(27.6257 -0.0566925 0)
(35.4489 0.0360767 0)
(31.2255 0.00935421 0)
(30.5067 0.00323973 0)
(30.1392 0.00220822 0)
(30.0005 0.000662499 0)
(29.995 -0.0036448 0)
(30.2213 -0.0126729 0)
(30.5201 -0.0193351 0)
(31.0019 -0.0757651 0)
(31.4622 -0.00562563 0)
(39.1463 0.0653845 0)
(34.8877 0.0185226 0)
(33.894 0.00710097 0)
(33.4061 0.00485336 0)
(33.2073 0.00189494 0)
(33.1658 -0.00646321 0)
(33.3759 -0.0213999 0)
(33.6456 -0.0459132 0)
(34.127 -0.0985859 0)
(34.5596 -0.137343 0)
(41.9364 0.0924956 0)
(38.0366 0.0309814 0)
(36.7803 0.0136434 0)
(36.1535 0.00941674 0)
(35.8787 0.00440764 0)
(35.7958 -0.00906264 0)
(35.967 -0.0329899 0)
(36.2225 -0.0704853 0)
(36.6454 -0.156172 0)
(37.0712 -0.221674 0)
(43.9546 0.110776 0)
(40.9507 0.0468353 0)
(39.5379 0.0243172 0)
(38.7716 0.0172214 0)
(38.4106 0.00917884 0)
(38.2839 -0.0108518 0)
(38.4022 -0.0462097 0)
(38.6434 -0.10212 0)
(39.0069 -0.218718 0)
(39.3975 -0.314577 0)
(45.1755 0.118752 0)
(43.5753 0.064613 0)
(42.2412 0.0399547 0)
(41.3822 0.0297322 0)
(40.9377 0.017419 0)
(40.7675 -0.0105995 0)
(40.831 -0.0606884 0)
(41.0462 -0.139113 0)
(41.3583 -0.285591 0)
(41.6951 -0.42243 0)
(44.9439 0.109473 0)
(45.3701 0.0766611 0)
(44.7091 0.0591756 0)
(43.9336 0.0486969 0)
(43.4555 0.0315084 0)
(43.2579 -0.00626944 0)
(43.2803 -0.0750381 0)
(43.4616 -0.180491 0)
(43.7249 -0.358488 0)
(43.999 -0.5382 0)
(44.6536 0.100677 0)
(45.5558 0.0725533 0)
(45.9939 0.066285 0)
(45.8834 0.0635061 0)
(45.6731 0.0473116 0)
(45.5694 0.00270061 0)
(45.6004 -0.0845272 0)
(45.7527 -0.218816 0)
(45.9601 -0.424709 0)
(46.1586 -0.639762 0)
(44.6574 0.0915897 0)
(45.4646 0.0637689 0)
(46.0304 0.0588691 0)
(46.2551 0.0591362 0)
(46.3679 0.0435336 0)
(46.4885 -0.00721394 0)
(46.6423 -0.112077 0)
(46.8346 -0.273878 0)
(47.0251 -0.498711 0)
(47.1709 -0.730629 0)
(44.661 0.0776934 0)
(45.4648 0.0528793 0)
(46.023 0.0486465 0)
(46.2514 0.0478985 0)
(46.3853 0.0290273 0)
(46.5231 -0.0310898 0)
(46.6769 -0.154559 0)
(46.8383 -0.342118 0)
(46.9767 -0.579 0)
(47.0621 -0.812114 0)
(44.6603 0.0456646 0)
(45.4616 0.0291884 0)
(46.021 0.0262859 0)
(46.2469 0.0240269 0)
(46.3725 0.00135672 0)
(46.485 -0.0698015 0)
(46.5862 -0.209267 0)
(46.6579 -0.405317 0)
(46.6884 -0.621997 0)
(46.6792 -0.81602 0)
(44.6599 0.00305394 0)
(45.4602 -0.00166652 0)
(46.0197 -0.00316516 0)
(46.2428 -0.00710705 0)
(46.3552 -0.0320188 0)
(46.4311 -0.107292 0)
(46.466 -0.244818 0)
(46.4553 -0.417447 0)
(46.4136 -0.583194 0)
(46.3586 -0.715974 0)
(44.6601 -0.0298106 0)
(45.4609 -0.0257099 0)
(46.0201 -0.0262568 0)
(46.2412 -0.030936 0)
(46.3441 -0.053574 0)
(46.3956 -0.120217 0)
(46.3919 -0.235399 0)
(46.34 -0.37071 0)
(46.2655 -0.493551 0)
(46.19 -0.588781 0)
(44.6604 -0.0552409 0)
(45.4622 -0.0442484 0)
(46.0212 -0.0443754 0)
(46.2413 -0.049259 0)
(46.3385 -0.0676277 0)
(46.3753 -0.121688 0)
(46.3488 -0.213899 0)
(46.2733 -0.32022 0)
(46.1808 -0.414689 0)
(46.0953 -0.486019 0)
(44.6591 -0.0755539 0)
(45.4669 -0.0582354 0)
(46.0283 -0.0577555 0)
(46.2395 -0.0630561 0)
(46.3169 -0.0774479 0)
(46.3248 -0.119679 0)
(46.2638 -0.192191 0)
(46.1552 -0.275201 0)
(46.037 -0.347705 0)
(45.9346 -0.401534 0)
(44.6859 -0.0920407 0)
(45.5041 -0.0720187 0)
(45.8566 -0.0679459 0)
(45.7792 -0.0695365 0)
(45.6035 -0.0771499 0)
(45.4162 -0.106139 0)
(45.207 -0.158745 0)
(44.9879 -0.219386 0)
(44.7908 -0.272045 0)
(44.6344 -0.310946 0)
(44.9004 -0.102201 0)
(44.689 -0.0748111 0)
(44.0595 -0.0596635 0)
(43.4406 -0.0533858 0)
(43.0048 -0.0539769 0)
(42.6866 -0.0716104 0)
(42.3998 -0.107054 0)
(42.1282 -0.14841 0)
(41.895 -0.184099 0)
(41.7146 -0.210159 0)
(43.9574 -0.0759115 0)
(41.9235 -0.0510054 0)
(40.855 -0.0370358 0)
(40.176 -0.0313779 0)
(39.7429 -0.0314522 0)
(39.4304 -0.0430041 0)
(39.1421 -0.0660683 0)
(38.864 -0.0927186 0)
(38.6234 -0.115452 0)
(38.4368 -0.131951 0)
(41.4376 -0.0397555 0)
(38.166 -0.0253481 0)
(37.0015 -0.0185849 0)
(36.3468 -0.0157664 0)
(35.9453 -0.0158558 0)
(35.6587 -0.0221285 0)
(35.3878 -0.0346675 0)
(35.1202 -0.0490206 0)
(34.8853 -0.061136 0)
(34.7021 -0.0698047 0)
(37.6512 -0.174061 0)
(33.9458 -0.030159 0)
(32.8246 -0.006177 0)
(32.2054 -0.00450518 0)
(31.8313 -0.00466223 0)
(31.5572 -0.00703481 0)
(31.2851 -0.0113403 0)
(31.0082 -0.0161686 0)
(30.7628 -0.0200971 0)
(30.5713 -0.0228654 0)
(46.6509 -0.968367 0)
(46.6076 -1.114 0)
(46.535 -1.28853 0)
(46.418 -1.49146 0)
(46.2357 -1.71323 0)
(45.9673 -1.92762 0)
(45.6035 -2.09336 0)
(45.1577 -2.16544 0)
(44.6695 -2.11377 0)
(44.1954 -1.94053 0)
(43.7857 -1.67899 0)
(43.4679 -1.37468 0)
(43.2428 -1.071 0)
(43.0979 -0.796046 0)
(43.01 -0.569827 0)
(42.9651 -0.391075 0)
(42.9402 -0.265873 0)
(42.9395 -0.172138 0)
(42.9363 -0.123532 0)
(42.9621 -0.0871028 0)
(46.3055 -0.812742 0)
(46.2472 -0.900414 0)
(46.1671 -1.00136 0)
(46.0568 -1.11444 0)
(45.9051 -1.23521 0)
(45.7011 -1.35338 0)
(45.4375 -1.45173 0)
(45.1162 -1.50803 0)
(44.7532 -1.50187 0)
(44.3775 -1.42294 0)
(44.0223 -1.27837 0)
(43.7142 -1.08783 0)
(43.4661 -0.879536 0)
(43.2791 -0.675537 0)
(43.1459 -0.497996 0)
(43.0569 -0.350127 0)
(43.0003 -0.243908 0)
(42.9696 -0.16216 0)
(42.9546 -0.119932 0)
(42.9556 -0.0895426 0)
(46.126 -0.656912 0)
(46.0615 -0.717693 0)
(45.9792 -0.786656 0)
(45.873 -0.86293 0)
(45.7357 -0.943809 0)
(45.5604 -1.02332 0)
(45.3422 -1.09156 0)
(45.0803 -1.1347 0)
(44.7823 -1.1387 0)
(44.4639 -1.09333 0)
(44.1476 -0.999368 0)
(43.8546 -0.866445 0)
(43.6017 -0.71426 0)
(43.3956 -0.558733 0)
(43.2386 -0.420192 0)
(43.1239 -0.300991 0)
(43.0482 -0.215779 0)
(42.9986 -0.147459 0)
(42.9759 -0.114926 0)
(42.9614 -0.089399 0)
(46.0271 -0.535939 0)
(45.9612 -0.579737 0)
(45.8797 -0.62881 0)
(45.7773 -0.682475 0)
(45.6487 -0.738847 0)
(45.4886 -0.793969 0)
(45.2929 -0.841615 0)
(45.0598 -0.8728 0)
(44.7932 -0.878104 0)
(44.5025 -0.849246 0)
(44.205 -0.785124 0)
(43.9171 -0.689915 0)
(43.6582 -0.577662 0)
(43.4344 -0.458859 0)
(43.2583 -0.351719 0)
(43.1169 -0.256288 0)
(43.025 -0.189293 0)
(42.9449 -0.132144 0)
(42.9162 -0.108127 0)
(42.8562 -0.0860093 0)
(45.8555 -0.438869 0)
(45.7803 -0.471404 0)
(45.6886 -0.507624 0)
(45.5755 -0.547052 0)
(45.4358 -0.588366 0)
(45.2644 -0.628834 0)
(45.057 -0.664167 0)
(44.8104 -0.688089 0)
(44.5267 -0.693685 0)
(44.2109 -0.674358 0)
(43.8785 -0.628199 0)
(43.5407 -0.557207 0)
(43.2227 -0.471308 0)
(42.9232 -0.378548 0)
(42.6741 -0.293424 0)
(42.4358 -0.216538 0)
(42.2731 -0.161725 0)
(42.0616 -0.114171 0)
(41.9857 -0.093688 0)
(41.7076 -0.0727776 0)
(44.5189 -0.337808 0)
(44.4125 -0.361101 0)
(44.2853 -0.386884 0)
(44.132 -0.414786 0)
(43.9468 -0.443801 0)
(43.7241 -0.471969 0)
(43.4589 -0.49617 0)
(43.1471 -0.511972 0)
(42.7897 -0.514252 0)
(42.3908 -0.498249 0)
(41.9653 -0.462065 0)
(41.5258 -0.407398 0)
(41.1 -0.340858 0)
(40.691 -0.269707 0)
(40.3347 -0.203319 0)
(39.9943 -0.145091 0)
(39.7398 -0.101272 0)
(39.4407 -0.0673117 0)
(39.3022 -0.0483552 0)
(38.9428 -0.0354099 0)
(41.5831 -0.228024 0)
(41.4628 -0.243516 0)
(41.32 -0.260733 0)
(41.1492 -0.279395 0)
(40.9448 -0.298752 0)
(40.7009 -0.317432 0)
(40.4126 -0.333274 0)
(40.0759 -0.343256 0)
(39.692 -0.343832 0)
(39.2655 -0.331807 0)
(38.8121 -0.305734 0)
(38.3469 -0.266962 0)
(37.8987 -0.21988 0)
(37.4764 -0.170132 0)
(37.1134 -0.123511 0)
(36.7837 -0.0838872 0)
(36.5417 -0.0531285 0)
(36.2873 -0.0322735 0)
(36.1686 -0.0175758 0)
(35.9072 -0.0132407 0)
(38.3008 -0.143281 0)
(38.1765 -0.153118 0)
(38.029 -0.164042 0)
(37.8528 -0.175832 0)
(37.6421 -0.188 0)
(37.3908 -0.19965 0)
(37.0942 -0.209414 0)
(36.7485 -0.215369 0)
(36.3547 -0.215192 0)
(35.9184 -0.20688 0)
(35.4558 -0.189467 0)
(34.9847 -0.163924 0)
(34.535 -0.132942 0)
(34.1213 -0.100542 0)
(33.775 -0.0701046 0)
(33.4812 -0.0448931 0)
(33.2778 -0.0249832 0)
(33.0959 -0.0130161 0)
(33.0191 -0.00301777 0)
(32.8848 -0.00295095 0)
(34.5682 -0.0756673 0)
(34.4457 -0.0807914 0)
(34.3003 -0.0865045 0)
(34.1265 -0.0926887 0)
(33.9182 -0.0989698 0)
(33.6697 -0.104902 0)
(33.3761 -0.109729 0)
(33.0336 -0.112403 0)
(32.6438 -0.111706 0)
(32.2127 -0.106449 0)
(31.7573 -0.0962447 0)
(31.2982 -0.0817499 0)
(30.867 -0.0645716 0)
(30.4828 -0.0470612 0)
(30.1751 -0.0309241 0)
(29.9359 -0.0181211 0)
(29.7875 -0.00812438 0)
(29.6833 -0.00293951 0)
(29.6551 0.00198792 0)
(29.6291 0.00057176 0)
(30.4314 -0.0247265 0)
(30.3037 -0.0263056 0)
(30.1525 -0.0281059 0)
(29.9724 -0.0300095 0)
(29.7574 -0.032078 0)
(29.5027 -0.0338704 0)
(29.2042 -0.0352112 0)
(28.8604 -0.0356959 0)
(28.4752 -0.0348541 0)
(28.0588 -0.0326722 0)
(27.6315 -0.0286872 0)
(27.2171 -0.0234065 0)
(26.8468 -0.0172983 0)
(26.5372 -0.0114587 0)
(26.3102 -0.00633603 0)
(26.1536 -0.00273491 0)
(26.0778 4.33278e-05 0)
(26.0428 0.000739582 0)
(26.055 0.00220953 0)
(26.0863 0.000931574 0)
(27.3914 -0.678994 0)
(26.2744 -0.530097 0)
(26.4286 -0.98005 0)
(27.3202 -1.75994 0)
(28.4156 -2.66753 0)
(29.5873 -3.55089 0)
(30.5564 -4.07695 0)
(31.2916 -4.09014 0)
(31.8841 -3.64143 0)
(32.4581 -2.97085 0)
(33.0182 -2.27587 0)
(33.5237 -1.67621 0)
(33.945 -1.2042 0)
(34.2643 -0.852237 0)
(34.5054 -0.605627 0)
(34.6683 -0.425866 0)
(34.7892 -0.31624 0)
(34.8829 -0.218504 0)
(34.9369 -0.191736 0)
(35.0629 -0.122655 0)
(32.1007 -0.430624 0)
(31.9666 -0.440398 0)
(31.8522 -0.999654 0)
(31.9327 -1.84122 0)
(32.2673 -2.76102 0)
(32.7855 -3.63043 0)
(33.2013 -4.13271 0)
(33.4785 -4.12678 0)
(33.7167 -3.66935 0)
(34.0243 -2.9953 0)
(34.3841 -2.29702 0)
(34.7331 -1.69299 0)
(35.0273 -1.21632 0)
(35.2387 -0.860372 0)
(35.3882 -0.610758 0)
(35.4691 -0.42895 0)
(35.5232 -0.318241 0)
(35.5495 -0.219694 0)
(35.5605 -0.193096 0)
(35.6209 -0.123678 0)
(35.0639 -0.497926 0)
(35.3671 -0.486545 0)
(35.8145 -0.986681 0)
(36.0738 -1.83268 0)
(36.1122 -2.76865 0)
(36.0947 -3.64064 0)
(35.9743 -4.13896 0)
(35.8054 -4.132 0)
(35.7128 -3.68015 0)
(35.7813 -3.0114 0)
(35.9641 -2.31396 0)
(36.1709 -1.70698 0)
(36.3424 -1.22597 0)
(36.4421 -0.866121 0)
(36.491 -0.613564 0)
(36.4776 -0.429915 0)
(36.4524 -0.318333 0)
(36.3962 -0.219324 0)
(36.3538 -0.193192 0)
(36.3316 -0.12405 0)
(37.4852 -0.539058 0)
(37.8023 -0.606747 0)
(38.3171 -1.07194 0)
(38.7392 -1.8693 0)
(38.8697 -2.76356 0)
(38.7318 -3.60366 0)
(38.3644 -4.0953 0)
(37.9363 -4.10038 0)
(37.6383 -3.67003 0)
(37.5602 -3.01748 0)
(37.6423 -2.32601 0)
(37.7696 -1.71691 0)
(37.8631 -1.23093 0)
(37.8757 -0.866814 0)
(37.8332 -0.611439 0)
(37.7232 -0.426512 0)
(37.6116 -0.314557 0)
(37.4595 -0.215877 0)
(37.3546 -0.19061 0)
(37.2266 -0.123016 0)
(39.7505 -0.608622 0)
(40.0305 -0.754589 0)
(40.446 -1.1856 0)
(40.7968 -1.9235 0)
(40.8837 -2.76017 0)
(40.6826 -3.54508 0)
(40.2372 -4.01806 0)
(39.7215 -4.03819 0)
(39.338 -3.64069 0)
(39.1883 -3.01547 0)
(39.2328 -2.33744 0)
(39.3564 -1.72796 0)
(39.4596 -1.23441 0)
(39.4629 -0.862395 0)
(39.3824 -0.602105 0)
(39.2034 -0.415826 0)
(39.0167 -0.30401 0)
(38.7654 -0.207025 0)
(38.5966 -0.183009 0)
(38.3358 -0.119171 0)
(41.9896 -0.692533 0)
(42.225 -0.897031 0)
(42.5314 -1.29803 0)
(42.7801 -1.96424 0)
(42.7952 -2.73092 0)
(42.5338 -3.45209 0)
(42.0368 -3.9042 0)
(41.4577 -3.94505 0)
(40.9875 -3.59035 0)
(40.7367 -3.00289 0)
(40.6958 -2.34792 0)
(40.7789 -1.74482 0)
(40.905 -1.24615 0)
(40.9775 -0.862955 0)
(40.9702 -0.590795 0)
(40.8165 -0.397688 0)
(40.6167 -0.283572 0)
(40.296 -0.189534 0)
(40.0845 -0.166739 0)
(39.6763 -0.110165 0)
(44.2307 -0.789005 0)
(44.4132 -1.02962 0)
(44.6169 -1.406 0)
(44.7643 -1.99155 0)
(44.713 -2.6751 0)
(44.405 -3.32224 0)
(43.8676 -3.74506 0)
(43.2248 -3.80644 0)
(42.6489 -3.50176 0)
(42.2592 -2.96354 0)
(42.0755 -2.34334 0)
(42.0401 -1.757 0)
(42.0959 -1.26222 0)
(42.1646 -0.874715 0)
(42.2342 -0.592402 0)
(42.2095 -0.38817 0)
(42.1519 -0.262072 0)
(41.8921 -0.164503 0)
(41.7181 -0.136684 0)
(41.207 -0.0919533 0)
(46.3144 -0.877411 0)
(46.4278 -1.12911 0)
(46.5261 -1.47905 0)
(46.5589 -1.97906 0)
(46.4189 -2.56651 0)
(46.0422 -3.12764 0)
(45.4405 -3.50985 0)
(44.7114 -3.58859 0)
(44.0087 -3.34131 0)
(43.4603 -2.86704 0)
(43.1112 -2.29777 0)
(42.931 -1.74351 0)
(42.874 -1.26454 0)
(42.8733 -0.883058 0)
(42.9195 -0.599099 0)
(42.9352 -0.392988 0)
(42.9938 -0.257886 0)
(42.9228 -0.157466 0)
(42.9698 -0.114208 0)
(42.6581 -0.071054 0)
(47.2658 -0.951592 0)
(47.321 -1.1875 0)
(47.3404 -1.4972 0)
(47.2856 -1.9067 0)
(47.0813 -2.38443 0)
(46.669 -2.84588 0)
(46.0491 -3.17418 0)
(45.2955 -3.26445 0)
(44.5379 -3.08178 0)
(43.9015 -2.68924 0)
(43.445 -2.19255 0)
(43.1643 -1.68962 0)
(43.0157 -1.24132 0)
(42.9573 -0.875494 0)
(42.945 -0.597562 0)
(42.9601 -0.394032 0)
(42.978 -0.257724 0)
(43.005 -0.158514 0)
(43.0247 -0.111018 0)
(43.056 -0.0670573 0)
(47.1013 -1.01201 0)
(47.1075 -1.21578 0)
(47.0733 -1.47184 0)
(46.9701 -1.78752 0)
(46.7492 -2.14589 0)
(46.3678 -2.49349 0)
(45.8216 -2.75095 0)
(45.1601 -2.84008 0)
(44.4791 -2.72248 0)
(43.8806 -2.42697 0)
(43.4249 -2.02622 0)
(43.1211 -1.59776 0)
(42.9413 -1.19919 0)
(42.8526 -0.86107 0)
(42.8149 -0.596926 0)
(42.8132 -0.3982 0)
(42.8156 -0.26329 0)
(42.8399 -0.164648 0)
(42.8446 -0.115409 0)
(42.8905 -0.0748886 0)
(0.854324 -0.0891929 0)
(0.956228 -0.0132613 0)
(-3.745 0.0796111 0)
(-7.61899 0.0436161 0)
(-9.10672 0.0153217 0)
(-9.5618 -0.000483355 0)
(-8.38663 -0.0184494 0)
(-5.90985 -0.0262212 0)
(-2.88916 -0.024412 0)
(0.0425203 -0.0164504 0)
(2.33799 -0.0092057 0)
(4.11947 -0.00796065 0)
(5.99556 -0.00993563 0)
(7.45839 -0.00794858 0)
(8.57328 -0.00586422 0)
(9.43686 -0.00413942 0)
(10.0705 -0.00310524 0)
(10.671 -0.00215709 0)
(10.9911 -0.00185403 0)
(11.5893 -0.00121301 0)
(0.825209 -0.00681468 0)
(-1.89786 0.143395 0)
(-8.30581 0.241537 0)
(-12.3295 0.12052 0)
(-13.4535 0.0302886 0)
(-12.8959 -0.0254847 0)
(-10.6776 -0.0743446 0)
(-7.05432 -0.09551 0)
(-2.8816 -0.0929485 0)
(1.28743 -0.0746695 0)
(4.86379 -0.0534144 0)
(7.77529 -0.0384021 0)
(9.95788 -0.0282191 0)
(11.6634 -0.0196538 0)
(12.9655 -0.0136684 0)
(14.0064 -0.00940905 0)
(14.7751 -0.00691109 0)
(15.4958 -0.00470544 0)
(15.8818 -0.00403815 0)
(16.6071 -0.00261316 0)
(0.558124 0.0283716 0)
(-3.80762 0.3439 0)
(-10.1458 0.418503 0)
(-13.1637 0.187604 0)
(-13.8368 0.0316158 0)
(-12.9408 -0.062209 0)
(-10.4717 -0.140255 0)
(-6.61572 -0.173735 0)
(-2.22268 -0.16822 0)
(2.1869 -0.138095 0)
(6.03466 -0.102189 0)
(9.23029 -0.0737528 0)
(11.6101 -0.0519622 0)
(13.4579 -0.0357163 0)
(14.8702 -0.0247453 0)
(16.0024 -0.0170238 0)
(16.8371 -0.0124631 0)
(17.62 -0.0084511 0)
(18.0393 -0.00726699 0)
(18.8253 -0.00466346 0)
(0.165386 0.126897 0)
(-4.95295 0.580016 0)
(-10.814 0.619223 0)
(-12.9145 0.249838 0)
(-13.4278 0.0265619 0)
(-12.3773 -0.113956 0)
(-9.82631 -0.227094 0)
(-5.90532 -0.275379 0)
(-1.45878 -0.265088 0)
(3.00745 -0.219239 0)
(6.93283 -0.164345 0)
(10.2309 -0.118677 0)
(12.7594 -0.0835255 0)
(14.722 -0.0577779 0)
(16.2253 -0.0402843 0)
(17.4294 -0.0278602 0)
(18.3172 -0.0204133 0)
(19.1498 -0.0138452 0)
(19.5977 -0.0119382 0)
(20.4314 -0.00762455 0)
(-0.292565 0.299241 0)
(-5.72585 0.894502 0)
(-10.7591 0.829738 0)
(-12.2301 0.305799 0)
(-12.6778 0.0154711 0)
(-11.5282 -0.183226 0)
(-8.94946 -0.33933 0)
(-5.01899 -0.40628 0)
(-0.574477 -0.390274 0)
(3.88713 -0.324948 0)
(7.82662 -0.246108 0)
(11.1555 -0.178378 0)
(13.7669 -0.125358 0)
(15.8031 -0.0868149 0)
(17.3674 -0.0606128 0)
(18.6211 -0.041974 0)
(19.5477 -0.0307598 0)
(20.4167 -0.020861 0)
(20.8865 -0.018003 0)
(21.7561 -0.0114531 0)
(-0.751098 0.551912 0)
(-6.16798 1.26453 0)
(-10.2136 1.03295 0)
(-11.2975 0.357225 0)
(-11.6923 -0.00199791 0)
(-10.4691 -0.270192 0)
(-7.88472 -0.476243 0)
(-3.97323 -0.565229 0)
(0.4387 -0.542122 0)
(4.86135 -0.453472 0)
(8.77823 -0.345971 0)
(12.0942 -0.251878 0)
(14.7359 -0.177308 0)
(16.8108 -0.12305 0)
(18.4114 -0.0860514 0)
(19.6963 -0.0596653 0)
(20.6492 -0.0437472 0)
(21.5438 -0.0296854 0)
(22.0298 -0.0256306 0)
(22.9256 -0.0162577 0)
(-1.14511 0.889358 0)
(-6.26402 1.66505 0)
(-9.33661 1.22533 0)
(-10.1877 0.40589 0)
(-10.5072 -0.0276672 0)
(-9.21751 -0.378091 0)
(-6.63268 -0.642057 0)
(-2.75714 -0.756711 0)
(1.59976 -0.724491 0)
(5.95713 -0.607737 0)
(9.82227 -0.465964 0)
(13.0942 -0.340742 0)
(15.7245 -0.24068 0)
(17.8054 -0.167498 0)
(19.4192 -0.11738 0)
(20.7182 -0.0815221 0)
(21.6854 -0.0598396 0)
(22.5948 -0.0406469 0)
(23.0916 -0.0351148 0)
(24.0044 -0.022227 0)
(-1.42032 1.30911 0)
(-6.01538 2.07688 0)
(-8.21389 1.40302 0)
(-8.91262 0.452923 0)
(-9.12519 -0.0648707 0)
(-7.7631 -0.511286 0)
(-5.17266 -0.842139 0)
(-1.34392 -0.986473 0)
(2.93758 -0.942611 0)
(7.20443 -0.791979 0)
(10.9898 -0.609219 0)
(14.1902 -0.447053 0)
(16.7753 -0.316998 0)
(18.8321 -0.221318 0)
(20.4362 -0.155485 0)
(21.7317 -0.108201 0)
(22.7005 -0.0795462 0)
(23.6127 -0.0541128 0)
(24.1147 -0.0467906 0)
(25.0339 -0.0295704 0)
(-1.5472 1.7938 0)
(-5.44788 2.48118 0)
(-6.85933 1.56228 0)
(-7.43288 0.496774 0)
(-7.50344 -0.119371 0)
(-6.05508 -0.675607 0)
(-3.45142 -1.08199 0)
(0.317707 -1.25917 0)
(4.4993 -1.20036 0)
(8.64572 -1.00935 0)
(12.3201 -0.778176 0)
(15.4199 -0.572523 0)
(17.9294 -0.407504 0)
(19.9337 -0.285497 0)
(21.5046 -0.201144 0)
(22.7769 -0.140297 0)
(23.7333 -0.103342 0)
(24.6344 -0.0704304 0)
(25.1349 -0.0609814 0)
(26.0477 -0.0384989 0)
(-1.52514 2.33124 0)
(-4.58924 2.84803 0)
(-5.24831 1.69238 0)
(-5.66768 0.530804 0)
(-5.54248 -0.201298 0)
(-3.98038 -0.881128 0)
(-1.35298 -1.37062 0)
(2.33537 -1.58163 0)
(6.37982 -1.50252 0)
(10.3614 -1.26303 0)
(13.8816 -0.975035 0)
(16.8434 -0.718669 0)
(19.2424 -0.513206 0)
(21.1622 -0.360762 0)
(22.6727 -0.254918 0)
(23.8989 -0.178255 0)
(24.8252 -0.131584 0)
(25.6981 -0.0898788 0)
(26.1878 -0.0779509 0)
(27.0777 -0.0491847 0)
(-1.26658 2.85733 0)
(-3.44312 3.13293 0)
(-3.33504 1.77062 0)
(-3.49862 0.538135 0)
(-3.08966 -0.327878 0)
(-1.36159 -1.14239 0)
(1.30954 -1.71978 0)
(4.88662 -1.96194 0)
(8.73736 -1.85439 0)
(12.4856 -1.5561 0)
(15.7862 -1.20158 0)
(18.5539 -0.886464 0)
(20.7943 -0.63459 0)
(22.5879 -0.44736 0)
(24.0029 -0.316949 0)
(25.1527 -0.222182 0)
(26.0259 -0.164362 0)
(26.8478 -0.112542 0)
(27.3144 -0.0978025 0)
(28.1586 -0.0617014 0)
(-1.08335 3.35476 0)
(-2.00214 3.25786 0)
(-1.04714 1.75587 0)
(-0.751196 0.483529 0)
(0.0796475 -0.527801 0)
(2.05323 -1.47978 0)
(4.79181 -2.14098 0)
(8.21286 -2.40336 0)
(11.7837 -2.25505 0)
(15.1975 -1.88605 0)
(18.1826 -1.45534 0)
(20.6747 -1.07384 0)
(22.689 -0.770038 0)
(24.2996 -0.544029 0)
(25.5726 -0.386298 0)
(26.6059 -0.271391 0)
(27.395 -0.201167 0)
(28.1357 -0.138093 0)
(28.5623 -0.120271 0)
(29.3303 -0.0759093 0)
(0.0468813 3.51703 0)
(-0.268888 3.11577 0)
(1.76868 1.56888 0)
(2.87881 0.298176 0)
(4.33405 -0.848506 0)
(6.6449 -1.9208 0)
(9.45147 -2.64448 0)
(12.6289 -2.9017 0)
(15.7814 -2.69356 0)
(18.7118 -2.24058 0)
(21.2456 -1.7259 0)
(23.3495 -1.27285 0)
(25.047 -0.913725 0)
(26.4005 -0.646551 0)
(27.4715 -0.459867 0)
(28.3372 -0.32366 0)
(29.0021 -0.240323 0)
(29.6232 -0.165407 0)
(29.987 -0.144373 0)
(30.6392 -0.0912525 0)
(-1.00604 3.54913 0)
(2.13612 2.36234 0)
(5.70373 1.00232 0)
(8.08509 -0.167945 0)
(10.378 -1.3747 0)
(13.0447 -2.50135 0)
(15.7975 -3.23212 0)
(18.5248 -3.43809 0)
(21.0236 -3.14377 0)
(23.2523 -2.59412 0)
(25.1522 -1.9922 0)
(26.7238 -1.46752 0)
(27.9915 -1.05392 0)
(28.9981 -0.746375 0)
(29.7946 -0.53135 0)
(30.4316 -0.374382 0)
(30.9237 -0.278304 0)
(31.3787 -0.192047 0)
(31.6508 -0.167891 0)
(32.138 -0.106472 0)
(5.68175 1.93679 0)
(9.38432 0.804573 0)
(13.629 -0.354411 0)
(17.0157 -1.29165 0)
(19.7744 -2.28054 0)
(22.2863 -3.24779 0)
(24.4289 -3.85761 0)
(26.2069 -3.94209 0)
(27.6585 -3.53745 0)
(28.9026 -2.89184 0)
(29.9699 -2.21357 0)
(30.8659 -1.62864 0)
(31.5955 -1.16968 0)
(32.1684 -0.82837 0)
(32.6188 -0.589597 0)
(32.9647 -0.415364 0)
(33.2322 -0.308808 0)
(33.4711 -0.213554 0)
(33.6168 -0.186845 0)
(33.8856 -0.119183 0)
)
;

boundaryField
{
    inlet
    {
        type            fixedValue;
        value           uniform (44.58 0 0);
    }
    outlet
    {
        type            zeroGradient;
    }
    frontAndBack
    {
        type            empty;
    }
    noslipwall
    {
        type            noSlip;
    }
}


// ************************************************************************* //
