/*--------------------------------*- C++ -*----------------------------------*\
  =========                 |
  \\      /  F ield         | OpenFOAM: The Open Source CFD Toolbox
   \\    /   O peration     | Website:  https://openfoam.org
    \\  /    A nd           | Version:  9
     \\/     M anipulation  |
\*---------------------------------------------------------------------------*/
FoamFile
{
    format      ascii;
    class       volScalarField;
    location    "32";
    object      p;
}
// * * * * * * * * * * * * * * * * * * * * * * * * * * * * * * * * * * * * * //

dimensions      [0 2 -2 0 0 0 0];

internalField   nonuniform List<scalar> 
1600
(
-2.72262e-11
-1.42752e-08
-4.21508e-08
-7.82076e-08
-1.15947e-07
-1.50911e-07
-1.80351e-07
-2.02263e-07
-2.15863e-07
-2.20384e-07
-2.15579e-07
-2.01333e-07
-1.77388e-07
-1.44034e-07
-1.01124e-07
-4.94251e-08
1.09476e-08
7.89903e-08
1.53609e-07
2.33407e-07
3.16297e-07
4.00292e-07
4.82991e-07
5.61447e-07
6.33092e-07
6.95362e-07
7.45796e-07
7.82274e-07
8.03803e-07
8.0964e-07
8.00149e-07
7.7643e-07
7.40689e-07
6.95842e-07
6.45737e-07
5.94828e-07
5.48014e-07
5.10757e-07
4.88353e-07
4.81335e-07
1.4114e-08
-7.04157e-10
-2.44215e-08
-5.48014e-08
-8.64724e-08
-1.15156e-07
-1.39743e-07
-1.58218e-07
-1.69551e-07
-1.72007e-07
-1.67439e-07
-1.54686e-07
-1.31737e-07
-1.02396e-07
-6.37651e-08
-1.73988e-08
3.77654e-08
9.87127e-08
1.66015e-07
2.37013e-07
3.11498e-07
3.87028e-07
4.61301e-07
5.31664e-07
5.95272e-07
6.51071e-07
6.96712e-07
7.30019e-07
7.49875e-07
7.55542e-07
7.47529e-07
7.28177e-07
6.96914e-07
6.59044e-07
6.16112e-07
5.73371e-07
5.32679e-07
5.00767e-07
4.80966e-07
4.74551e-07
4.25569e-08
2.3994e-08
-9.5298e-10
-2.95157e-08
-5.6121e-08
-8.08523e-08
-1.01316e-07
-1.16906e-07
-1.25437e-07
-1.28472e-07
-1.23324e-07
-1.11317e-07
-9.15028e-08
-6.45439e-08
-3.01027e-08
1.14082e-08
5.90603e-08
1.14814e-07
1.74086e-07
2.38504e-07
3.05269e-07
3.73556e-07
4.39356e-07
5.03245e-07
5.61359e-07
6.12561e-07
6.52761e-07
6.8228e-07
7.00823e-07
7.06966e-07
6.99882e-07
6.81798e-07
6.55907e-07
6.2187e-07
5.83971e-07
5.45887e-07
5.09329e-07
4.81267e-07
4.60287e-07
4.52232e-07
7.99289e-08
5.42819e-08
2.52588e-08
-3.4961e-09
-2.90785e-08
-5.30125e-08
-7.0514e-08
-8.48516e-08
-9.12047e-08
-9.40786e-08
-8.97075e-08
-7.85009e-08
-6.28785e-08
-3.84568e-08
-7.6227e-09
2.94046e-08
7.30199e-08
1.2166e-07
1.7584e-07
2.34251e-07
2.9577e-07
3.57826e-07
4.19128e-07
4.78429e-07
5.32374e-07
5.79471e-07
6.18567e-07
6.46745e-07
6.62315e-07
6.69517e-07
6.62723e-07
6.46216e-07
6.21142e-07
5.89519e-07
5.53313e-07
5.15966e-07
4.81417e-07
4.52133e-07
4.28641e-07
4.15045e-07
1.19989e-07
8.54096e-08
5.02134e-08
1.87771e-08
-6.75059e-09
-2.95154e-08
-4.72256e-08
-6.07671e-08
-6.78033e-08
-7.02054e-08
-6.72096e-08
-5.82671e-08
-4.33599e-08
-2.26319e-08
4.56071e-09
3.64229e-08
7.57304e-08
1.2029e-07
1.70948e-07
2.24317e-07
2.80431e-07
3.39433e-07
3.97574e-07
4.53825e-07
5.05931e-07
5.50625e-07
5.88271e-07
6.16433e-07
6.33347e-07
6.38515e-07
6.31978e-07
6.16619e-07
5.91109e-07
5.58659e-07
5.22079e-07
4.85216e-07
4.47588e-07
4.14822e-07
3.86028e-07
3.66351e-07
1.5746e-07
1.13907e-07
7.2156e-08
3.71826e-08
8.32511e-09
-1.46748e-08
-3.33715e-08
-4.59089e-08
-5.33675e-08
-5.75339e-08
-5.54069e-08
-4.87338e-08
-3.6982e-08
-1.94991e-08
3.52111e-09
3.25519e-08
6.74654e-08
1.07971e-07
1.54066e-07
2.04141e-07
2.5889e-07
3.15508e-07
3.71627e-07
4.26235e-07
4.7774e-07
5.23589e-07
5.61535e-07
5.88722e-07
6.07201e-07
6.12744e-07
6.06635e-07
5.9074e-07
5.6425e-07
5.31881e-07
4.92585e-07
4.51821e-07
4.09933e-07
3.71477e-07
3.37269e-07
3.09214e-07
1.88254e-07
1.36496e-07
8.64159e-08
4.71895e-08
1.58884e-08
-9.42628e-09
-2.76272e-08
-4.17915e-08
-5.1726e-08
-5.57229e-08
-5.65066e-08
-5.16738e-08
-4.35293e-08
-2.92957e-08
-9.56368e-09
1.56634e-08
4.61786e-08
8.40645e-08
1.25567e-07
1.73925e-07
2.2628e-07
2.80559e-07
3.37684e-07
3.9316e-07
4.45788e-07
4.92666e-07
5.32872e-07
5.63013e-07
5.81736e-07
5.88935e-07
5.83814e-07
5.67728e-07
5.40129e-07
5.03678e-07
4.62684e-07
4.16901e-07
3.69839e-07
3.2463e-07
2.80956e-07
2.45297e-07
2.0876e-07
1.47464e-07
9.16028e-08
4.68529e-08
1.33551e-08
-1.44625e-08
-3.48781e-08
-5.08906e-08
-6.21024e-08
-6.85649e-08
-7.23024e-08
-7.06633e-08
-6.54557e-08
-5.52185e-08
-4.0287e-08
-1.86294e-08
8.4928e-09
4.2975e-08
8.29783e-08
1.29111e-07
1.80497e-07
2.34859e-07
2.92369e-07
3.50035e-07
4.05052e-07
4.56095e-07
4.99399e-07
5.32666e-07
5.55525e-07
5.66223e-07
5.61841e-07
5.44512e-07
5.16639e-07
4.78005e-07
4.31474e-07
3.80928e-07
3.27192e-07
2.72725e-07
2.20907e-07
1.75585e-07
2.1577e-07
1.46749e-07
8.29544e-08
3.3979e-08
-2.7857e-09
-3.26784e-08
-5.64323e-08
-7.46045e-08
-8.68076e-08
-9.74406e-08
-1.04203e-07
-1.06834e-07
-1.04642e-07
-9.95881e-08
-8.85244e-08
-7.04139e-08
-4.76294e-08
-1.69795e-08
2.02635e-08
6.58407e-08
1.16382e-07
1.72383e-07
2.32545e-07
2.93561e-07
3.52889e-07
4.09116e-07
4.58009e-07
4.97605e-07
5.25142e-07
5.38384e-07
5.37881e-07
5.23015e-07
4.94193e-07
4.52313e-07
4.00786e-07
3.43645e-07
2.81096e-07
2.18997e-07
1.5594e-07
1.00559e-07
2.06548e-07
1.29785e-07
5.93502e-08
6.82855e-09
-3.48855e-08
-6.74772e-08
-9.25356e-08
-1.14201e-07
-1.30067e-07
-1.43625e-07
-1.53789e-07
-1.6155e-07
-1.64687e-07
-1.63581e-07
-1.57346e-07
-1.46097e-07
-1.25937e-07
-9.92513e-08
-6.38335e-08
-2.00636e-08
2.96927e-08
8.89376e-08
1.51748e-07
2.16753e-07
2.8334e-07
3.4663e-07
4.0367e-07
4.50569e-07
4.8668e-07
5.0626e-07
5.11444e-07
4.98233e-07
4.68858e-07
4.26387e-07
3.69677e-07
3.05449e-07
2.33842e-07
1.60826e-07
8.56799e-08
1.99815e-08
1.78236e-07
9.40059e-08
1.84388e-08
-3.9761e-08
-8.42172e-08
-1.1958e-07
-1.48441e-07
-1.71739e-07
-1.93727e-07
-2.11004e-07
-2.25357e-07
-2.38418e-07
-2.47327e-07
-2.52788e-07
-2.52356e-07
-2.44821e-07
-2.30475e-07
-2.07705e-07
-1.75223e-07
-1.3308e-07
-8.21668e-08
-2.21654e-08
4.52643e-08
1.16904e-07
1.92102e-07
2.63782e-07
3.31767e-07
3.89883e-07
4.35803e-07
4.66354e-07
4.77696e-07
4.69224e-07
4.42751e-07
3.98233e-07
3.3805e-07
2.64948e-07
1.85222e-07
9.99129e-08
1.23808e-08
-6.62941e-08
1.28501e-07
3.80113e-08
-4.27471e-08
-1.04107e-07
-1.53308e-07
-1.9187e-07
-2.23871e-07
-2.51477e-07
-2.77044e-07
-3.00084e-07
-3.20434e-07
-3.40004e-07
-3.54997e-07
-3.67078e-07
-3.74222e-07
-3.7354e-07
-3.64704e-07
-3.4745e-07
-3.19554e-07
-2.78607e-07
-2.27604e-07
-1.64826e-07
-9.2738e-08
-1.39807e-08
6.95315e-08
1.54216e-07
2.35342e-07
3.08395e-07
3.67105e-07
4.1061e-07
4.33369e-07
4.34391e-07
4.1207e-07
3.67799e-07
3.03213e-07
2.24802e-07
1.34022e-07
3.47928e-08
-6.59695e-08
-1.58659e-07
5.54723e-08
-3.96339e-08
-1.27156e-07
-1.92423e-07
-2.43827e-07
-2.8522e-07
-3.22841e-07
-3.54063e-07
-3.84664e-07
-4.13533e-07
-4.40756e-07
-4.67568e-07
-4.91625e-07
-5.11484e-07
-5.25874e-07
-5.3463e-07
-5.33996e-07
-5.21963e-07
-4.98311e-07
-4.61593e-07
-4.1121e-07
-3.46848e-07
-2.70134e-07
-1.82162e-07
-8.70958e-08
1.14257e-08
1.07963e-07
1.98701e-07
2.77749e-07
3.37192e-07
3.76191e-07
3.88951e-07
3.73598e-07
3.3354e-07
2.67453e-07
1.81898e-07
8.0576e-08
-3.06014e-08
-1.4867e-07
-2.57372e-07
-4.29906e-08
-1.43065e-07
-2.34446e-07
-3.03024e-07
-3.57632e-07
-4.03918e-07
-4.43765e-07
-4.81094e-07
-5.17458e-07
-5.53606e-07
-5.89379e-07
-6.23794e-07
-6.57218e-07
-6.87826e-07
-7.13394e-07
-7.30975e-07
-7.39892e-07
-7.36232e-07
-7.20015e-07
-6.88261e-07
-6.39124e-07
-5.74652e-07
-4.93344e-07
-3.97334e-07
-2.89448e-07
-1.74753e-07
-5.82471e-08
5.48785e-08
1.55647e-07
2.3965e-07
2.99329e-07
3.29033e-07
3.27793e-07
2.94317e-07
2.29834e-07
1.37927e-07
2.63059e-08
-9.96142e-08
-2.36158e-07
-3.62368e-07
-1.684e-07
-2.73015e-07
-3.66181e-07
-4.38322e-07
-4.96796e-07
-5.45815e-07
-5.91498e-07
-6.34097e-07
-6.78218e-07
-7.21868e-07
-7.66429e-07
-8.12408e-07
-8.56334e-07
-8.98294e-07
-9.35643e-07
-9.65611e-07
-9.86586e-07
-9.94442e-07
-9.87015e-07
-9.62493e-07
-9.17691e-07
-8.54307e-07
-7.68129e-07
-6.64291e-07
-5.44176e-07
-4.11021e-07
-2.71641e-07
-1.33835e-07
-3.17927e-09
1.09054e-07
1.95925e-07
2.51391e-07
2.6849e-07
2.46682e-07
1.87387e-07
9.33093e-08
-2.82959e-08
-1.70018e-07
-3.26002e-07
-4.7301e-07
-3.21626e-07
-4.28763e-07
-5.25483e-07
-6.00184e-07
-6.62059e-07
-7.15302e-07
-7.65185e-07
-8.15226e-07
-8.6528e-07
-9.17825e-07
-9.73879e-07
-1.03152e-06
-1.08844e-06
-1.14471e-06
-1.19607e-06
-1.2414e-06
-1.27593e-06
-1.29785e-06
-1.30352e-06
-1.28902e-06
-1.25168e-06
-1.19048e-06
-1.10439e-06
-9.92437e-07
-8.59159e-07
-7.0752e-07
-5.43432e-07
-3.73044e-07
-2.10008e-07
-6.15203e-08
6.12036e-08
1.48064e-07
1.93164e-07
1.89819e-07
1.39741e-07
4.63618e-08
-8.24167e-08
-2.40598e-07
-4.18372e-07
-5.88343e-07
-5.03638e-07
-6.11804e-07
-7.11696e-07
-7.88304e-07
-8.5317e-07
-9.10277e-07
-9.66114e-07
-1.02178e-06
-1.08215e-06
-1.14462e-06
-1.21174e-06
-1.28152e-06
-1.35388e-06
-1.42583e-06
-1.49491e-06
-1.55728e-06
-1.61084e-06
-1.64965e-06
-1.67094e-06
-1.66925e-06
-1.64368e-06
-1.58928e-06
-1.5037e-06
-1.38747e-06
-1.24268e-06
-1.07046e-06
-8.79312e-07
-6.75709e-07
-4.7298e-07
-2.80997e-07
-1.14226e-07
1.47414e-08
9.54189e-08
1.20404e-07
8.85957e-08
2.80402e-10
-1.35019e-07
-3.07334e-07
-5.09942e-07
-7.06397e-07
-7.14468e-07
-8.23154e-07
-9.24885e-07
-1.00375e-06
-1.06966e-06
-1.13208e-06
-1.1936e-06
-1.25686e-06
-1.3253e-06
-1.39932e-06
-1.48013e-06
-1.56482e-06
-1.65326e-06
-1.74359e-06
-1.83167e-06
-1.91495e-06
-1.9879e-06
-2.04805e-06
-2.08864e-06
-2.10694e-06
-2.09535e-06
-2.05096e-06
-1.97113e-06
-1.85328e-06
-1.69899e-06
-1.50763e-06
-1.28904e-06
-1.04921e-06
-8.00542e-07
-5.58641e-07
-3.38159e-07
-1.5606e-07
-2.90937e-08
3.51157e-08
2.87442e-08
-4.69207e-08
-1.83209e-07
-3.71188e-07
-5.97968e-07
-8.23766e-07
-9.53849e-07
-1.06264e-06
-1.1649e-06
-1.2448e-06
-1.31451e-06
-1.38102e-06
-1.44679e-06
-1.51847e-06
-1.59614e-06
-1.68153e-06
-1.77457e-06
-1.87621e-06
-1.98233e-06
-2.0917e-06
-2.2022e-06
-2.30779e-06
-2.40636e-06
-2.49099e-06
-2.55577e-06
-2.59524e-06
-2.60377e-06
-2.57537e-06
-2.50492e-06
-2.39054e-06
-2.22942e-06
-2.02228e-06
-1.7764e-06
-1.49849e-06
-1.2007e-06
-9.01518e-07
-6.18415e-07
-3.7213e-07
-1.84921e-07
-6.84688e-08
-3.75135e-08
-9.19252e-08
-2.24187e-07
-4.24197e-07
-6.77424e-07
-9.3578e-07
-1.2211e-06
-1.32957e-06
-1.4303e-06
-1.51218e-06
-1.58382e-06
-1.6537e-06
-1.72608e-06
-1.80368e-06
-1.89118e-06
-1.98853e-06
-2.09614e-06
-2.21286e-06
-2.33852e-06
-2.47003e-06
-2.60352e-06
-2.73545e-06
-2.86011e-06
-2.97228e-06
-3.06532e-06
-3.13152e-06
-3.16456e-06
-3.15776e-06
-3.10335e-06
-2.99587e-06
-2.83211e-06
-2.61432e-06
-2.34274e-06
-2.02637e-06
-1.67801e-06
-1.31564e-06
-9.60662e-07
-6.40297e-07
-3.76825e-07
-1.96808e-07
-1.12543e-07
-1.33443e-07
-2.53183e-07
-4.62392e-07
-7.43093e-07
-1.03581e-06
-1.51494e-06
-1.62148e-06
-1.72212e-06
-1.80448e-06
-1.87812e-06
-1.94964e-06
-2.02711e-06
-2.11175e-06
-2.20749e-06
-2.31623e-06
-2.43705e-06
-2.57157e-06
-2.7155e-06
-2.86897e-06
-3.02744e-06
-3.18664e-06
-3.34051e-06
-3.48372e-06
-3.60878e-06
-3.70598e-06
-3.7691e-06
-3.78735e-06
-3.7538e-06
-3.65951e-06
-3.50204e-06
-3.27562e-06
-2.98381e-06
-2.63146e-06
-2.23211e-06
-1.80247e-06
-1.3698e-06
-9.61328e-07
-6.10392e-07
-3.46697e-07
-1.95368e-07
-1.69155e-07
-2.65212e-07
-4.76425e-07
-7.84687e-07
-1.11482e-06
-1.834e-06
-1.93828e-06
-2.03826e-06
-2.12086e-06
-2.19488e-06
-2.26821e-06
-2.3488e-06
-2.43898e-06
-2.54223e-06
-2.65936e-06
-2.79385e-06
-2.94345e-06
-3.10737e-06
-3.28236e-06
-3.46646e-06
-3.65438e-06
-3.83875e-06
-4.01519e-06
-4.17395e-06
-4.30587e-06
-4.40245e-06
-4.45163e-06
-4.44374e-06
-4.37047e-06
-4.22344e-06
-3.99617e-06
-3.68857e-06
-3.30511e-06
-2.85608e-06
-2.35907e-06
-1.84248e-06
-1.33804e-06
-8.84594e-07
-5.22502e-07
-2.83529e-07
-1.91664e-07
-2.53264e-07
-4.58329e-07
-7.90763e-07
-1.16043e-06
-2.17635e-06
-2.27839e-06
-2.37716e-06
-2.45706e-06
-2.53121e-06
-2.60637e-06
-2.68705e-06
-2.78029e-06
-2.88895e-06
-3.01519e-06
-3.15978e-06
-3.32291e-06
-3.50437e-06
-3.70135e-06
-3.90972e-06
-4.12539e-06
-4.34106e-06
-4.55241e-06
-4.74656e-06
-4.9154e-06
-5.04805e-06
-5.13325e-06
-5.15703e-06
-5.10845e-06
-4.97749e-06
-4.75668e-06
-4.4406e-06
-4.03101e-06
-3.53667e-06
-2.97421e-06
-2.37088e-06
-1.76424e-06
-1.19535e-06
-7.16739e-07
-3.72567e-07
-1.96261e-07
-2.03695e-07
-3.9342e-07
-7.46259e-07
-1.15664e-06
-2.5404e-06
-2.64068e-06
-2.73847e-06
-2.81734e-06
-2.88827e-06
-2.96014e-06
-3.04039e-06
-3.13305e-06
-3.24269e-06
-3.37329e-06
-3.52559e-06
-3.70044e-06
-3.89672e-06
-4.11306e-06
-4.34391e-06
-4.5872e-06
-4.8351e-06
-5.07819e-06
-5.30956e-06
-5.517e-06
-5.68903e-06
-5.81009e-06
-5.86861e-06
-5.85081e-06
-5.74149e-06
-5.53304e-06
-5.21438e-06
-4.78595e-06
-4.25371e-06
-3.62968e-06
-2.94127e-06
-2.22589e-06
-1.53364e-06
-9.23553e-07
-4.52189e-07
-1.69767e-07
-1.03947e-07
-2.62173e-07
-6.31669e-07
-1.0822e-06
-2.92443e-06
-3.02384e-06
-3.11987e-06
-3.19591e-06
-3.26176e-06
-3.32865e-06
-3.40163e-06
-3.48996e-06
-3.59724e-06
-3.72742e-06
-3.88292e-06
-4.06593e-06
-4.27389e-06
-4.50595e-06
-4.75859e-06
-5.02638e-06
-5.30324e-06
-5.57888e-06
-5.84628e-06
-6.09136e-06
-6.30096e-06
-6.46079e-06
-6.55694e-06
-6.57097e-06
-6.48858e-06
-6.29601e-06
-5.98269e-06
-5.54197e-06
-4.97731e-06
-4.29776e-06
-3.5268e-06
-2.70306e-06
-1.88096e-06
-1.12452e-06
-5.071e-07
-9.54172e-08
6.56209e-08
-4.47169e-08
-4.19619e-07
-9.10291e-07
-3.32732e-06
-3.42686e-06
-3.52404e-06
-3.59391e-06
-3.65202e-06
-3.70715e-06
-3.76969e-06
-3.84776e-06
-3.94596e-06
-4.06972e-06
-4.22503e-06
-4.40937e-06
-4.62489e-06
-4.86902e-06
-5.13848e-06
-5.42829e-06
-5.73079e-06
-6.03731e-06
-6.33799e-06
-6.61783e-06
-6.86644e-06
-7.06464e-06
-7.19581e-06
-7.24297e-06
-7.18891e-06
-7.01631e-06
-6.71103e-06
-6.26503e-06
-5.67331e-06
-4.94329e-06
-4.0962e-06
-3.16669e-06
-2.20977e-06
-1.29781e-06
-5.17102e-07
4.81437e-08
3.30796e-07
2.8976e-07
-8.04871e-08
-6.06611e-07
-3.74977e-06
-3.8531e-06
-3.94936e-06
-4.01375e-06
-4.05732e-06
-4.09566e-06
-4.13993e-06
-4.19737e-06
-4.27986e-06
-4.39183e-06
-4.53708e-06
-4.71893e-06
-4.93785e-06
-5.1887e-06
-5.47221e-06
-5.77878e-06
-6.10536e-06
-6.43818e-06
-6.76877e-06
-7.0823e-06
-7.36401e-06
-7.59764e-06
-7.76302e-06
-7.84202e-06
-7.81475e-06
-7.66235e-06
-7.36753e-06
-6.91625e-06
-6.30296e-06
-5.53033e-06
-4.61015e-06
-3.57745e-06
-2.48573e-06
-1.41055e-06
-4.49152e-07
2.93509e-07
7.25148e-07
7.79408e-07
4.29182e-07
-1.27844e-07
-4.19323e-06
-4.30379e-06
-4.40172e-06
-4.45338e-06
-4.47873e-06
-4.4901e-06
-4.50546e-06
-4.53619e-06
-4.59249e-06
-4.68302e-06
-4.81342e-06
-4.9857e-06
-5.19979e-06
-5.45471e-06
-5.74605e-06
-6.06762e-06
-6.41067e-06
-6.76803e-06
-7.12417e-06
-7.46808e-06
-7.77959e-06
-8.04426e-06
-8.23994e-06
-8.34756e-06
-8.34337e-06
-8.20745e-06
-7.92085e-06
-7.46466e-06
-6.83011e-06
-6.01485e-06
-5.02556e-06
-3.89222e-06
-2.66509e-06
-1.42037e-06
-2.65629e-07
6.78383e-07
1.29031e-06
1.46823e-06
1.15958e-06
5.80135e-07
-4.66369e-06
-4.78726e-06
-4.88641e-06
-4.92076e-06
-4.91528e-06
-4.88973e-06
-4.86422e-06
-4.85464e-06
-4.87501e-06
-4.93509e-06
-5.04182e-06
-5.19844e-06
-5.40292e-06
-5.65574e-06
-5.95117e-06
-6.28248e-06
-6.64211e-06
-7.0167e-06
-7.39562e-06
-7.76245e-06
-8.10122e-06
-8.39065e-06
-8.61106e-06
-8.74049e-06
-8.75326e-06
-8.62858e-06
-8.3442e-06
-7.87967e-06
-7.21952e-06
-6.35742e-06
-5.2992e-06
-4.06532e-06
-2.70017e-06
-1.28056e-06
8.30827e-08
1.25112e-06
2.07613e-06
2.41537e-06
2.17469e-06
1.58569e-06
-5.17223e-06
-5.3147e-06
-5.41339e-06
-5.42323e-06
-5.37186e-06
-5.29223e-06
-5.20987e-06
-5.14665e-06
-5.11859e-06
-5.13906e-06
-5.21457e-06
-5.34716e-06
-5.53886e-06
-5.78551e-06
-6.08036e-06
-6.41823e-06
-6.78753e-06
-7.17833e-06
-7.57469e-06
-7.96207e-06
-8.31978e-06
-8.62978e-06
-8.86709e-06
-9.0109e-06
-9.03396e-06
-8.91182e-06
-8.61909e-06
-8.13526e-06
-7.44159e-06
-6.52825e-06
-5.39132e-06
-4.04952e-06
-2.53993e-06
-9.36624e-07
6.51305e-07
2.07145e-06
3.14787e-06
3.69232e-06
3.55474e-06
2.97557e-06
-5.73924e-06
-5.90665e-06
-6.00157e-06
-5.9679e-06
-5.85142e-06
-5.69579e-06
-5.53761e-06
-5.4033e-06
-5.31468e-06
-5.28453e-06
-5.32161e-06
-5.4265e-06
-5.59884e-06
-5.83482e-06
-6.12759e-06
-6.4693e-06
-6.84662e-06
-7.2488e-06
-7.65915e-06
-8.06085e-06
-8.43408e-06
-8.75669e-06
-9.0059e-06
-9.1545e-06
-9.17718e-06
-9.04601e-06
-8.73569e-06
-8.2214e-06
-7.47964e-06
-6.49764e-06
-5.27014e-06
-3.80765e-06
-2.14018e-06
-3.34333e-07
1.50082e-06
3.20771e-06
4.58309e-06
5.38741e-06
5.40224e-06
4.86211e-06
-6.40163e-06
-6.59765e-06
-6.67673e-06
-6.57277e-06
-6.35909e-06
-6.09998e-06
-5.84182e-06
-5.61865e-06
-5.45496e-06
-5.36497e-06
-5.35614e-06
-5.42793e-06
-5.57907e-06
-5.80442e-06
-6.09277e-06
-6.43513e-06
-6.81889e-06
-7.2296e-06
-7.65084e-06
-8.06286e-06
-8.44493e-06
-8.77393e-06
-9.02613e-06
-9.17148e-06
-9.18328e-06
-9.03363e-06
-8.69043e-06
-8.12827e-06
-7.32301e-06
-6.25608e-06
-4.91682e-06
-3.31053e-06
-1.46236e-06
5.73073e-07
2.69187e-06
4.7331e-06
6.47123e-06
7.6115e-06
7.84952e-06
7.39556e-06
-7.22537e-06
-7.44454e-06
-7.47892e-06
-7.26048e-06
-6.90355e-06
-6.5018e-06
-6.11348e-06
-5.78062e-06
-5.52849e-06
-5.37195e-06
-5.31254e-06
-5.35046e-06
-5.47912e-06
-5.69005e-06
-5.97457e-06
-6.31855e-06
-6.70636e-06
-7.12378e-06
-7.55199e-06
-7.97176e-06
-8.35763e-06
-8.6881e-06
-8.93394e-06
-9.06834e-06
-9.06032e-06
-8.87746e-06
-8.48927e-06
-7.86613e-06
-6.97977e-06
-5.80616e-06
-4.3323e-06
-2.55457e-06
-4.89622e-07
1.81469e-06
4.26979e-06
6.71658e-06
8.91176e-06
1.05005e-05
1.10715e-05
1.07847e-05
-8.33002e-06
-8.54001e-06
-8.46722e-06
-8.05462e-06
-7.48799e-06
-6.89259e-06
-6.342e-06
-5.87949e-06
-5.5269e-06
-5.29569e-06
-5.18438e-06
-5.18858e-06
-5.29728e-06
-5.49825e-06
-5.77824e-06
-6.1224e-06
-6.5162e-06
-6.93906e-06
-7.37267e-06
-7.79373e-06
-8.18056e-06
-8.50622e-06
-8.74211e-06
-8.8566e-06
-8.81882e-06
-8.59516e-06
-8.14992e-06
-7.45268e-06
-6.46767e-06
-5.1702e-06
-3.53784e-06
-1.55843e-06
7.60001e-07
3.38785e-06
6.2507e-06
9.20413e-06
1.19967e-05
1.42093e-05
1.52999e-05
1.53344e-05
-9.93722e-06
-1.00378e-05
-9.72296e-06
-8.98842e-06
-8.11514e-06
-7.26141e-06
-6.50963e-06
-5.8948e-06
-5.43508e-06
-5.12797e-06
-4.96723e-06
-4.94123e-06
-5.03228e-06
-5.22686e-06
-5.5081e-06
-5.85622e-06
-6.25408e-06
-6.6829e-06
-7.12e-06
-7.54167e-06
-7.92474e-06
-8.24035e-06
-8.4595e-06
-8.55042e-06
-8.47786e-06
-8.20709e-06
-7.69985e-06
-6.91978e-06
-5.82953e-06
-4.39527e-06
-2.58705e-06
-3.82412e-07
2.22967e-06
5.23696e-06
8.595e-06
1.21891e-05
1.57818e-05
1.8896e-05
2.08293e-05
2.14969e-05
-1.24376e-05
-1.21805e-05
-1.1352e-05
-1.00794e-05
-8.76011e-06
-7.57183e-06
-6.57793e-06
-5.79751e-06
-5.22614e-06
-4.85171e-06
-4.65073e-06
-4.60274e-06
-4.68692e-06
-4.88288e-06
-5.16798e-06
-5.52386e-06
-5.92948e-06
-6.36314e-06
-6.80408e-06
-7.22626e-06
-7.60532e-06
-7.91019e-06
-8.11133e-06
-8.17611e-06
-8.06755e-06
-7.7488e-06
-7.18079e-06
-6.3189e-06
-5.12487e-06
-3.55587e-06
-1.56915e-06
8.71146e-07
3.80009e-06
7.23904e-06
1.11853e-05
1.55846e-05
2.025e-05
2.468e-05
2.80001e-05
2.98755e-05
-1.64857e-05
-1.53206e-05
-1.34356e-05
-1.12803e-05
-9.33708e-06
-7.73201e-06
-6.46925e-06
-5.52471e-06
-4.86083e-06
-4.43646e-06
-4.216e-06
-4.16632e-06
-4.25641e-06
-4.46354e-06
-4.76311e-06
-5.1331e-06
-5.55041e-06
-5.9939e-06
-6.44058e-06
-6.86494e-06
-7.23869e-06
-7.53535e-06
-7.72224e-06
-7.766e-06
-7.62777e-06
-7.27027e-06
-6.65068e-06
-5.72326e-06
-4.44226e-06
-2.75772e-06
-6.13426e-07
2.04678e-06
5.28553e-06
9.17485e-06
1.37825e-05
1.91564e-05
2.52342e-05
3.15902e-05
3.72063e-05
4.12703e-05
-2.38382e-05
-2.00185e-05
-1.58025e-05
-1.22567e-05
-9.53237e-06
-7.48756e-06
-5.99522e-06
-4.94441e-06
-4.24412e-06
-3.82247e-06
-3.62271e-06
-3.60089e-06
-3.7235e-06
-3.96111e-06
-4.28836e-06
-4.68315e-06
-5.12083e-06
-5.58115e-06
-6.03968e-06
-6.47134e-06
-6.85128e-06
-7.14792e-06
-7.33084e-06
-7.36526e-06
-7.21356e-06
-6.8378e-06
-6.19265e-06
-5.22933e-06
-3.89969e-06
-2.14435e-06
1.0273e-07
2.91873e-06
6.40559e-06
1.06893e-05
1.5943e-05
2.23845e-05
3.02143e-05
3.93922e-05
4.92672e-05
5.81008e-05
-4.14613e-05
-2.72767e-05
-1.75125e-05
-1.20468e-05
-8.64966e-06
-6.36276e-06
-4.83385e-06
-3.84456e-06
-3.2395e-06
-2.91611e-06
-2.80522e-06
-2.86336e-06
-3.05374e-06
-3.34959e-06
-3.72546e-06
-4.16161e-06
-4.63589e-06
-5.12694e-06
-5.61192e-06
-6.06641e-06
-6.46641e-06
-6.78136e-06
-6.98098e-06
-7.03173e-06
-6.89484e-06
-6.53251e-06
-5.90016e-06
-4.95026e-06
-3.62824e-06
-1.87367e-06
3.87561e-07
3.24672e-06
6.83258e-06
1.13267e-05
1.70178e-05
2.43575e-05
3.4038e-05
4.71453e-05
6.56344e-05
8.84456e-05
-7.91872e-05
-3.74608e-05
-1.81906e-05
-1.08993e-05
-7.11613e-06
-4.75992e-06
-3.33809e-06
-2.52223e-06
-2.0882e-06
-1.91232e-06
-1.92628e-06
-2.08647e-06
-2.36145e-06
-2.72712e-06
-3.16287e-06
-3.64958e-06
-4.16782e-06
-4.69816e-06
-5.21955e-06
-5.70909e-06
-6.14184e-06
-6.49006e-06
-6.72329e-06
-6.80864e-06
-6.71016e-06
-6.3881e-06
-5.79925e-06
-4.89633e-06
-3.62548e-06
-1.92518e-06
2.79782e-07
3.08646e-06
6.63274e-06
1.11325e-05
1.69534e-05
2.47848e-05
3.60058e-05
5.35673e-05
8.46052e-05
0.00013634
)
;

boundaryField
{
    movingWall
    {
        type            zeroGradient;
    }
    fixedWalls
    {
        type            zeroGradient;
    }
    frontAndBack
    {
        type            empty;
    }
}


// ************************************************************************* //
