/*--------------------------------*- C++ -*----------------------------------*\
  =========                 |
  \\      /  F ield         | OpenFOAM: The Open Source CFD Toolbox
   \\    /   O peration     | Website:  https://openfoam.org
    \\  /    A nd           | Version:  9
     \\/     M anipulation  |
\*---------------------------------------------------------------------------*/
FoamFile
{
    format      ascii;
    class       surfaceScalarField;
    location    "32";
    object      phi;
}
// * * * * * * * * * * * * * * * * * * * * * * * * * * * * * * * * * * * * * //

dimensions      [0 3 -1 0 0 0 0];

internalField   nonuniform List<scalar> 
3120
(
2.24372e-11
-2.26231e-11
3.06209e-11
-8.49469e-12
2.21608e-12
2.87622e-11
-6.62603e-11
6.93457e-11
-1.70966e-10
1.05041e-10
-3.0544e-10
1.34264e-10
-4.63049e-10
1.56126e-10
-6.36739e-10
1.74071e-10
-8.21092e-10
1.84313e-10
-1.011e-09
1.88716e-10
-1.2018e-09
1.90953e-10
-1.3898e-09
1.88615e-10
-1.57028e-09
1.8087e-10
-1.74061e-09
1.69405e-10
-1.89542e-09
1.56161e-10
-2.03242e-09
1.36702e-10
-2.14649e-09
1.12694e-10
-2.23402e-09
8.82241e-11
-2.29181e-09
5.74381e-11
-2.31634e-09
2.55873e-11
-2.30578e-09
-1.08181e-11
-2.25838e-09
-4.86762e-11
-2.17328e-09
-8.48589e-11
-2.05272e-09
-1.21447e-10
-1.89862e-09
-1.5312e-10
-1.71549e-09
-1.81902e-10
-1.50852e-09
-2.0608e-10
-1.28593e-09
-2.23982e-10
-1.05459e-09
-2.30126e-10
-8.24657e-10
-2.30595e-10
-6.04571e-10
-2.20114e-10
-4.03939e-10
-2.01481e-10
-2.3057e-10
-1.72281e-10
-9.18984e-11
-1.3841e-10
7.38864e-12
-9.90628e-11
6.48553e-11
-5.72704e-11
8.14629e-11
-1.70715e-11
6.42284e-11
1.7493e-11
2.7818e-11
3.69026e-11
2.76606e-11
8.39307e-12
-3.1267e-11
-3.09981e-11
3.53593e-11
-1.6219e-10
1.56813e-10
-3.84632e-10
2.8796e-10
-6.88537e-10
4.10933e-10
-1.06839e-09
5.12693e-10
-1.49969e-09
5.9459e-10
-1.97916e-09
6.48752e-10
-2.48138e-09
6.8889e-10
-2.99689e-09
7.07996e-10
-3.51551e-09
7.09981e-10
-4.02654e-09
6.95326e-10
-4.51352e-09
6.69763e-10
-4.96877e-09
6.26069e-10
-5.3843e-09
5.69065e-10
-5.74947e-09
4.9729e-10
-6.04525e-09
4.14271e-10
-6.27513e-09
3.13849e-10
-6.41815e-09
2.05357e-10
-6.47798e-09
8.12578e-11
-6.44299e-09
-4.74003e-11
-6.30757e-09
-1.7958e-10
-6.07781e-09
-3.13164e-10
-5.754e-09
-4.43304e-10
-5.34436e-09
-5.63185e-10
-4.86295e-09
-6.70104e-10
-4.31772e-09
-7.50569e-10
-3.72878e-09
-8.09075e-10
-3.12348e-09
-8.38814e-10
-2.51592e-09
-8.37208e-10
-1.93082e-09
-8.03945e-10
-1.3915e-09
-7.37769e-10
-9.21143e-10
-6.46849e-10
-5.32111e-10
-5.28169e-10
-2.35802e-10
-3.9554e-10
-4.18047e-11
-2.53392e-10
5.71535e-11
-1.13886e-10
7.49002e-11
2.33373e-12
3.67323e-11
7.41115e-11
6.55126e-11
-2.92531e-11
-1.69329e-12
-1.60947e-10
1.66465e-10
-4.23023e-10
4.14856e-10
-8.10734e-10
6.77664e-10
-1.31776e-09
9.19986e-10
-1.926e-09
1.1217e-09
-2.61668e-09
1.28033e-09
-3.36144e-09
1.3962e-09
-4.14848e-09
1.47162e-09
-4.95148e-09
1.5103e-09
-5.75659e-09
1.51362e-09
-6.54148e-09
1.4823e-09
-7.29619e-09
1.42018e-09
-7.9946e-09
1.32888e-09
-8.63048e-09
1.20469e-09
-9.18147e-09
1.05185e-09
-9.63463e-09
8.67097e-10
-9.97357e-09
6.57317e-10
-1.01916e-08
4.18267e-10
-1.0271e-08
1.63643e-10
-1.02097e-08
-1.09801e-10
-1.00007e-08
-3.89017e-10
-9.64885e-09
-6.69808e-10
-9.15479e-09
-9.36777e-10
-8.53575e-09
-1.18453e-09
-7.79944e-09
-1.39876e-09
-6.97811e-09
-1.57553e-09
-6.08744e-09
-1.69625e-09
-5.16761e-09
-1.76199e-09
-4.24277e-09
-1.76188e-09
-3.34478e-09
-1.69748e-09
-2.51451e-09
-1.57307e-09
-1.77064e-09
-1.38711e-09
-1.14786e-09
-1.15718e-09
-6.50642e-10
-8.86104e-10
-2.96622e-10
-6.05251e-10
-8.26647e-11
-3.32093e-10
1.42301e-11
-9.57236e-11
2.21275e-11
6.21857e-11
8.71861e-11
-7.50172e-11
7.24115e-11
-3.13066e-10
4.04305e-10
-7.18617e-10
8.25075e-10
-1.28336e-09
1.24816e-09
-1.997e-09
1.62888e-09
-2.82946e-09
1.95268e-09
-3.75923e-09
2.20716e-09
-4.75466e-09
2.39632e-09
-5.79774e-09
2.51517e-09
-6.85948e-09
2.57454e-09
-7.92149e-09
2.57237e-09
-8.95202e-09
2.51645e-09
-9.93822e-09
2.40632e-09
-1.08537e-08
2.24353e-09
-1.16798e-08
2.03103e-09
-1.2398e-08
1.7646e-09
-1.29819e-08
1.45422e-09
-1.34241e-08
1.09562e-09
-1.36977e-08
6.96442e-10
-1.38018e-08
2.63897e-10
-1.3718e-08
-1.91627e-10
-1.34492e-08
-6.58496e-10
-1.29906e-08
-1.12388e-09
-1.23559e-08
-1.57161e-09
-1.15557e-08
-1.98491e-09
-1.06119e-08
-2.34577e-09
-9.54664e-09
-2.63521e-09
-8.39887e-09
-2.84572e-09
-7.20157e-09
-2.96059e-09
-5.99557e-09
-2.97001e-09
-4.82052e-09
-2.87495e-09
-3.71474e-09
-2.6763e-09
-2.71945e-09
-2.38386e-09
-1.8573e-09
-2.01329e-09
-1.16155e-09
-1.58717e-09
-6.3473e-10
-1.1327e-09
-2.8045e-10
-6.86046e-10
-8.06439e-11
-2.93367e-10
-3.46745e-12
-1.10414e-11
8.35382e-11
-1.19923e-10
1.9256e-10
-4.66797e-10
7.51361e-10
-1.02569e-09
1.3824e-09
-1.77576e-09
1.9955e-09
-2.69021e-09
2.54192e-09
-3.74263e-09
3.00254e-09
-4.89875e-09
3.36647e-09
-6.13444e-09
3.62909e-09
-7.41401e-09
3.79747e-09
-8.71703e-09
3.87307e-09
-1.00105e-08
3.8628e-09
-1.1266e-08
3.77496e-09
-1.24636e-08
3.60297e-09
-1.35721e-08
3.35673e-09
-1.45756e-08
3.02989e-09
-1.54394e-08
2.63311e-09
-1.61484e-08
2.16227e-09
-1.66832e-08
1.62624e-09
-1.70165e-08
1.0334e-09
-1.71451e-08
3.89591e-10
-1.70501e-08
-2.83275e-10
-1.67347e-08
-9.77595e-10
-1.61927e-08
-1.66459e-09
-1.54394e-08
-2.32822e-09
-1.44862e-08
-2.93821e-09
-1.33562e-08
-3.47405e-09
-1.20843e-08
-3.91173e-09
-1.07032e-08
-4.22883e-09
-9.25313e-09
-4.40637e-09
-7.78758e-09
-4.43764e-09
-6.34684e-09
-4.31462e-09
-4.97952e-09
-4.04311e-09
-3.73323e-09
-3.63376e-09
-2.63628e-09
-3.10618e-09
-1.72712e-09
-2.49731e-09
-1.01399e-09
-1.84253e-09
-5.06353e-10
-1.19626e-09
-1.89257e-10
-6.11884e-10
-3.36852e-11
-1.63988e-10
4.94239e-11
-1.64153e-10
3.57061e-10
-6.18833e-10
1.20608e-09
-1.33045e-09
2.09213e-09
-2.264e-09
2.92613e-09
-3.377e-09
3.66123e-09
-4.64132e-09
4.27104e-09
-6.02142e-09
4.7477e-09
-7.48095e-09
5.09095e-09
-8.9887e-09
5.30607e-09
-1.05149e-08
5.39761e-09
-1.20213e-08
5.37458e-09
-1.34905e-08
5.23953e-09
-1.48814e-08
4.99583e-09
-1.6176e-08
4.64623e-09
-1.73392e-08
4.19506e-09
-1.83489e-08
3.64052e-09
-1.91767e-08
2.99252e-09
-1.9803e-08
2.25177e-09
-2.02046e-08
1.43486e-09
-2.03634e-08
5.54183e-10
-2.02763e-08
-3.75806e-10
-1.99274e-08
-1.32392e-09
-1.93252e-08
-2.26924e-09
-1.84722e-08
-3.17879e-09
-1.73904e-08
-4.02253e-09
-1.61003e-08
-4.76296e-09
-1.4638e-08
-5.37459e-09
-1.30395e-08
-5.82262e-09
-1.13556e-08
-6.08967e-09
-9.6381e-09
-6.15709e-09
-7.93858e-09
-6.01474e-09
-6.30879e-09
-5.66971e-09
-4.80319e-09
-5.13908e-09
-3.46591e-09
-4.44726e-09
-2.33116e-09
-3.635e-09
-1.42322e-09
-2.75351e-09
-7.46576e-10
-1.86907e-09
-3.0168e-10
-1.05736e-09
-6.53078e-11
-4.04358e-10
-1.55227e-11
-2.07824e-10
5.63453e-10
-7.65065e-10
1.76674e-09
-1.62422e-09
2.95104e-09
-2.73403e-09
4.03233e-09
-4.044e-09
4.97097e-09
-5.5158e-09
5.74184e-09
-7.10962e-09
6.33906e-09
-8.7845e-09
6.76745e-09
-1.05088e-08
7.02705e-09
-1.2245e-08
7.13334e-09
-1.39582e-08
7.09248e-09
-1.56255e-08
6.90355e-09
-1.72046e-08
6.57695e-09
-1.86716e-08
6.11428e-09
-1.99971e-08
5.51859e-09
-2.11459e-08
4.79308e-09
-2.21e-08
3.94241e-09
-2.28239e-08
2.97795e-09
-2.3301e-08
1.91176e-09
-2.35133e-08
7.6229e-10
-2.34431e-08
-4.44322e-10
-2.30868e-08
-1.68041e-09
-2.2442e-08
-2.91448e-09
-2.15154e-08
-4.10509e-09
-2.03223e-08
-5.21207e-09
-1.88934e-08
-6.196e-09
-1.72546e-08
-7.00871e-09
-1.54561e-08
-7.62458e-09
-1.35446e-08
-8.00184e-09
-1.15749e-08
-8.12297e-09
-9.61279e-09
-7.9783e-09
-7.71621e-09
-7.56768e-09
-5.94152e-09
-6.90877e-09
-4.34609e-09
-6.03891e-09
-2.97052e-09
-5.00564e-09
-1.85196e-09
-3.87371e-09
-9.99539e-10
-2.72225e-09
-4.2042e-10
-1.6388e-09
-9.61649e-11
-7.26504e-10
-1.11533e-10
-2.45909e-10
8.09709e-10
-9.0361e-10
2.42663e-09
-1.9058e-09
3.9513e-09
-3.18337e-09
5.31112e-09
-4.68237e-09
6.47123e-09
-6.35383e-09
7.41508e-09
-8.15009e-09
8.13841e-09
-1.00359e-08
8.64704e-09
-1.19628e-08
8.95679e-09
-1.38996e-08
9.07293e-09
-1.5815e-08
9.00233e-09
-1.76712e-08
8.7584e-09
-1.94323e-08
8.34324e-09
-2.10711e-08
7.75394e-09
-2.25567e-08
7.00147e-09
-2.38526e-08
6.0915e-09
-2.4936e-08
5.02376e-09
-2.57723e-08
3.81568e-09
-2.63419e-08
2.48107e-09
-2.66207e-08
1.04356e-09
-2.65921e-08
-4.70198e-10
-2.62519e-08
-2.02362e-09
-2.55889e-08
-3.57582e-09
-2.46106e-08
-5.08187e-09
-2.33334e-08
-6.48964e-09
-2.17769e-08
-7.74811e-09
-1.99854e-08
-8.8074e-09
-1.79885e-08
-9.61634e-09
-1.58526e-08
-1.0142e-08
-1.36329e-08
-1.0344e-08
-1.13983e-08
-1.02138e-08
-9.21739e-09
-9.74924e-09
-7.15995e-09
-8.96978e-09
-5.28874e-09
-7.91334e-09
-3.65602e-09
-6.63976e-09
-2.30987e-09
-5.22626e-09
-1.26491e-09
-3.76052e-09
-5.40515e-10
-2.36089e-09
-1.27556e-10
-1.13998e-09
-2.38771e-10
-2.83496e-10
1.09239e-09
-1.03346e-09
3.18009e-09
-2.17018e-09
5.08289e-09
-3.60721e-09
6.7506e-09
-5.28469e-09
8.14934e-09
-7.14739e-09
9.27336e-09
-9.14045e-09
1.01282e-08
-1.12193e-08
1.07267e-08
-1.33429e-08
1.10833e-08
-1.54768e-08
1.12042e-08
-1.75785e-08
1.11083e-08
-1.96194e-08
1.07981e-08
-2.15651e-08
1.02826e-08
-2.33738e-08
9.56683e-09
-2.50193e-08
8.6523e-09
-2.64736e-08
7.54032e-09
-2.76967e-08
6.24527e-09
-2.86607e-08
4.78144e-09
-2.93395e-08
3.15959e-09
-2.97099e-08
1.41359e-09
-2.97484e-08
-4.29851e-10
-2.94478e-08
-2.32716e-09
-2.87958e-08
-4.23036e-09
-2.7792e-08
-6.08386e-09
-2.64526e-08
-7.83027e-09
-2.47949e-08
-9.40436e-09
-2.28572e-08
-1.07475e-08
-2.06807e-08
-1.17953e-08
-1.83166e-08
-1.24977e-08
-1.58429e-08
-1.282e-08
-1.33251e-08
-1.27314e-08
-1.08449e-08
-1.22289e-08
-8.48134e-09
-1.13333e-08
-6.31084e-09
-1.00849e-08
-4.39848e-09
-8.55121e-09
-2.79696e-09
-6.82327e-09
-1.55041e-09
-5.01288e-09
-6.69364e-10
-3.2413e-09
-1.59649e-10
-1.65106e-09
-3.98528e-10
-3.16648e-10
1.4095e-09
-1.15613e-09
4.01694e-09
-2.41308e-09
6.34118e-09
-4.00306e-09
8.33798e-09
-5.84862e-09
9.99487e-09
-7.88894e-09
1.13132e-08
-1.00643e-08
1.23063e-08
-1.23271e-08
1.2994e-08
-1.46417e-08
1.33918e-08
-1.69581e-08
1.3522e-08
-1.92456e-08
1.33927e-08
-2.14659e-08
1.30182e-08
-2.35867e-08
1.24032e-08
-2.55696e-08
1.15518e-08
-2.73874e-08
1.04646e-08
-2.90021e-08
9.15344e-09
-3.03762e-08
7.62605e-09
-3.14896e-08
5.8903e-09
-3.22966e-08
3.97262e-09
-3.27849e-08
1.89803e-09
-3.29181e-08
-2.93845e-10
-3.26875e-08
-2.55927e-09
-3.20749e-08
-4.84312e-09
-3.10773e-08
-7.08127e-09
-2.9701e-08
-9.20336e-09
-2.79674e-08
-1.11405e-08
-2.59018e-08
-1.28116e-08
-2.35519e-08
-1.41481e-08
-2.09728e-08
-1.50809e-08
-1.82368e-08
-1.55564e-08
-1.54234e-08
-1.55415e-08
-1.26259e-08
-1.50282e-08
-9.9314e-09
-1.40254e-08
-7.43381e-09
-1.25805e-08
-5.21318e-09
-1.07712e-08
-3.33809e-09
-8.69728e-09
-1.86012e-09
-6.48736e-09
-8.0938e-10
-4.29329e-09
-1.95109e-10
-2.26757e-09
-5.93396e-10
-3.47802e-10
1.75752e-09
-1.26578e-09
4.93493e-09
-2.63735e-09
7.71345e-09
-4.36433e-09
1.00669e-08
-6.36482e-09
1.19958e-08
-8.57036e-09
1.35156e-08
-1.09157e-08
1.46562e-08
-1.33548e-08
1.54339e-08
-1.58421e-08
1.58796e-08
-1.83363e-08
1.60168e-08
-2.07974e-08
1.58589e-08
-2.31929e-08
1.54164e-08
-2.54885e-08
1.46992e-08
-2.7649e-08
1.37091e-08
-2.96368e-08
1.24553e-08
-3.1421e-08
1.09399e-08
-3.2967e-08
9.16689e-09
-3.42402e-08
7.16019e-09
-3.52028e-08
4.93642e-09
-3.58319e-08
2.52531e-09
-3.6091e-08
-3.27559e-11
-3.59637e-08
-2.69095e-09
-3.54234e-08
-5.37957e-09
-3.44634e-08
-8.03879e-09
-3.30879e-08
-1.05814e-08
-3.13022e-08
-1.29247e-08
-2.91365e-08
-1.49788e-08
-2.66283e-08
-1.66521e-08
-2.38367e-08
-1.78674e-08
-2.08388e-08
-1.85542e-08
-1.77244e-08
-1.86603e-08
-1.45869e-08
-1.81649e-08
-1.15359e-08
-1.70755e-08
-8.68376e-09
-1.5439e-08
-6.12129e-09
-1.33319e-08
-3.9397e-09
-1.08771e-08
-2.21007e-09
-8.22231e-09
-9.65586e-10
-5.53344e-09
-2.3302e-10
-3.00077e-09
-8.27402e-10
-3.76553e-10
2.13278e-09
-1.36252e-09
5.92408e-09
-2.83769e-09
9.18569e-09
-4.69019e-09
1.19169e-08
-6.83084e-09
1.41373e-08
-9.18044e-09
1.5872e-08
-1.16873e-08
1.71561e-08
-1.42856e-08
1.80328e-08
-1.69327e-08
1.85269e-08
-1.95911e-08
1.86709e-08
-2.222e-08
1.84851e-08
-2.47829e-08
1.79785e-08
-2.72508e-08
1.71648e-08
-2.95816e-08
1.60446e-08
-3.17451e-08
1.46213e-08
-3.37128e-08
1.2901e-08
-3.54344e-08
1.08958e-08
-3.68869e-08
8.61205e-09
-3.80252e-08
6.07828e-09
-3.88223e-08
3.31904e-09
-3.92398e-08
3.8237e-10
-3.92429e-08
-2.68097e-09
-3.88189e-08
-5.81068e-09
-3.7933e-08
-8.91806e-09
-3.65929e-08
-1.19259e-08
-3.4792e-08
-1.47259e-08
-3.25526e-08
-1.72191e-08
-2.99141e-08
-1.92948e-08
-2.6928e-08
-2.08543e-08
-2.36713e-08
-2.18083e-08
-2.02467e-08
-2.20903e-08
-1.67546e-08
-2.16525e-08
-1.3324e-08
-2.05036e-08
-1.00788e-08
-1.86798e-08
-7.14241e-09
-1.62685e-08
-4.6219e-09
-1.33991e-08
-2.60318e-09
-1.0242e-08
-1.14488e-09
-6.99018e-09
-2.77736e-10
-3.86519e-09
-1.10571e-09
-4.00025e-10
2.53289e-09
-1.44835e-09
6.97418e-09
-3.01312e-09
1.07493e-08
-4.9716e-09
1.38792e-08
-7.23698e-09
1.63983e-08
-9.72238e-09
1.83561e-08
-1.23634e-08
1.97974e-08
-1.51089e-08
2.07724e-08
-1.79008e-08
2.13255e-08
-2.07063e-08
2.14797e-08
-2.34917e-08
2.1265e-08
-2.62093e-08
2.07018e-08
-2.88414e-08
1.97912e-08
-3.1343e-08
1.85437e-08
-3.36825e-08
1.69631e-08
-3.5829e-08
1.50468e-08
-3.77423e-08
1.28087e-08
-3.9385e-08
1.02575e-08
-4.07214e-08
7.41356e-09
-4.17072e-08
4.30731e-09
-4.23098e-08
9.83049e-10
-4.24891e-08
-2.50709e-09
-4.22079e-08
-6.08789e-09
-4.14464e-08
-9.68373e-09
-4.01805e-08
-1.31894e-08
-3.84082e-08
-1.65001e-08
-3.61329e-08
-1.94875e-08
-3.3395e-08
-2.20348e-08
-3.02372e-08
-2.40107e-08
-2.67406e-08
-2.53046e-08
-2.30003e-08
-2.58261e-08
-1.91482e-08
-2.55097e-08
-1.53134e-08
-2.43379e-08
-1.16471e-08
-2.23468e-08
-8.2971e-09
-1.96203e-08
-5.39698e-09
-1.63039e-08
-3.05182e-09
-1.25833e-08
-1.34976e-09
-8.69292e-09
-3.30044e-10
-4.8844e-09
-1.4357e-09
-4.20141e-10
2.95296e-09
-1.5195e-09
8.07574e-09
-3.15977e-09
1.23862e-08
-5.21196e-09
1.59315e-08
-7.57867e-09
1.87693e-08
-1.018e-08
2.0955e-08
-1.2939e-08
2.25609e-08
-1.58043e-08
2.36402e-08
-1.873e-08
2.42447e-08
-2.16676e-08
2.44194e-08
-2.45856e-08
2.41867e-08
-2.74501e-08
2.35683e-08
-3.0232e-08
2.25713e-08
-3.28912e-08
2.12071e-08
-3.54047e-08
1.94707e-08
-3.77294e-08
1.73729e-08
-3.98351e-08
1.49108e-08
-4.16798e-08
1.20999e-08
-4.32253e-08
8.95581e-09
-4.44231e-08
5.50796e-09
-4.52391e-08
1.79621e-09
-4.56185e-08
-2.12057e-09
-4.55293e-08
-6.17958e-09
-4.49271e-08
-1.02835e-08
-4.37896e-08
-1.43316e-08
-4.20899e-08
-1.81962e-08
-3.9834e-08
-2.17479e-08
-3.70376e-08
-2.48334e-08
-3.37449e-08
-2.73048e-08
-3.00337e-08
-2.90214e-08
-2.59939e-08
-2.98591e-08
-2.17738e-08
-2.97314e-08
-1.75217e-08
-2.85942e-08
-1.34036e-08
-2.64631e-08
-9.60304e-09
-2.34233e-08
-6.27605e-09
-1.96267e-08
-3.56822e-09
-1.52907e-08
-1.58712e-09
-1.06776e-08
-3.8997e-10
-6.079e-09
-1.82656e-09
-4.35899e-10
3.38819e-09
-1.5765e-09
9.21693e-09
-3.27625e-09
1.40828e-08
-5.39895e-09
1.80605e-08
-7.85465e-09
2.1218e-08
-1.05444e-08
2.36442e-08
-1.34023e-08
2.54188e-08
-1.63703e-08
2.66061e-08
-1.93972e-08
2.72762e-08
-2.24478e-08
2.74672e-08
-2.54812e-08
2.72229e-08
-2.84728e-08
2.6556e-08
-3.13847e-08
2.54848e-08
-3.41928e-08
2.40127e-08
-3.68599e-08
2.21437e-08
-3.93594e-08
1.98709e-08
-4.16505e-08
1.72047e-08
-4.36985e-08
1.41487e-08
-4.54595e-08
1.0716e-08
-4.68852e-08
6.93764e-09
-4.79317e-08
2.8433e-09
-4.855e-08
-1.50703e-09
-4.86833e-08
-6.04274e-09
-4.82905e-08
-1.06773e-08
-4.73258e-08
-1.52943e-08
-4.57627e-08
-1.97637e-08
-4.35779e-08
-2.39286e-08
-4.07808e-08
-2.76276e-08
-3.74041e-08
-3.06791e-08
-3.3516e-08
-3.29122e-08
-2.92086e-08
-3.41615e-08
-2.46329e-08
-3.43098e-08
-1.99524e-08
-3.32763e-08
-1.53602e-08
-3.10508e-08
-1.1071e-08
-2.77141e-08
-7.27888e-09
-2.34188e-08
-4.16237e-09
-1.84074e-08
-1.85978e-09
-1.29802e-08
-4.61199e-10
-7.48022e-09
-2.28812e-09
-4.46414e-10
3.83505e-09
-1.61694e-09
1.03875e-08
-3.35787e-09
1.58219e-08
-5.539e-09
2.02421e-08
-8.05467e-09
2.37348e-08
-1.08093e-08
2.64054e-08
-1.37449e-08
2.83468e-08
-1.67845e-08
2.96503e-08
-1.98956e-08
3.03835e-08
-2.30266e-08
3.06018e-08
-2.61545e-08
3.03471e-08
-2.92432e-08
2.96428e-08
-3.22644e-08
2.8506e-08
-3.51931e-08
2.69407e-08
-3.80012e-08
2.49494e-08
-4.06526e-08
2.25256e-08
-4.31185e-08
1.9672e-08
-4.53629e-08
1.63889e-08
-4.73348e-08
1.26911e-08
-4.89964e-08
8.59556e-09
-5.0288e-08
4.13688e-09
-5.11622e-08
-6.33729e-10
-5.15575e-08
-5.65223e-09
-5.14129e-08
-1.08192e-08
-5.06792e-08
-1.60297e-08
-4.93056e-08
-2.11332e-08
-4.72638e-08
-2.59735e-08
-4.45343e-08
-3.03522e-08
-4.11428e-08
-3.40734e-08
-3.71339e-08
-3.69188e-08
-3.26071e-08
-3.86907e-08
-2.77026e-08
-3.92178e-08
-2.25984e-08
-3.83751e-08
-1.75231e-08
-3.6127e-08
-1.27132e-08
-3.25235e-08
-8.41331e-09
-2.77204e-08
-4.84163e-09
-2.1978e-08
-2.17681e-09
-1.56426e-08
-5.44674e-10
-9.11088e-09
-2.83218e-09
-4.53441e-10
4.28774e-09
-1.64151e-09
1.15746e-08
-3.4044e-09
1.75914e-08
-5.62285e-09
2.24544e-08
-8.17652e-09
2.6286e-08
-1.09761e-08
2.92057e-08
-1.39542e-08
3.13246e-08
-1.70422e-08
3.27419e-08
-2.02045e-08
3.35421e-08
-2.33885e-08
3.37921e-08
-2.65775e-08
3.35313e-08
-2.97314e-08
3.27995e-08
-3.28312e-08
3.16084e-08
-3.585e-08
2.99629e-08
-3.87684e-08
2.78615e-08
-4.15478e-08
2.53061e-08
-4.41663e-08
2.22872e-08
-4.65833e-08
1.88077e-08
-4.87568e-08
1.48677e-08
-5.06455e-08
1.04813e-08
-5.21862e-08
5.68553e-09
-5.33342e-08
5.09137e-10
-5.40093e-08
-4.96973e-09
-5.41581e-08
-1.06745e-08
-5.36999e-08
-1.64804e-08
-5.2588e-08
-2.22531e-08
-5.07567e-08
-2.78034e-08
-4.81816e-08
-3.29321e-08
-4.48518e-08
-3.74006e-08
-4.08052e-08
-4.09662e-08
-3.61238e-08
-4.33767e-08
-3.09364e-08
-4.44006e-08
-2.54429e-08
-4.38698e-08
-1.98841e-08
-4.16893e-08
-1.45335e-08
-3.78721e-08
-9.68559e-09
-3.2568e-08
-5.61334e-09
-2.60545e-08
-2.53983e-09
-1.87118e-08
-6.41277e-10
-1.10144e-08
-3.47335e-09
-4.53599e-10
4.7423e-09
-1.64635e-09
1.27671e-08
-3.42237e-09
1.93656e-08
-5.65137e-09
2.46825e-08
-8.2181e-09
2.88565e-08
-1.10348e-08
3.20246e-08
-1.40299e-08
3.43165e-08
-1.71336e-08
3.58489e-08
-2.03111e-08
3.6715e-08
-2.352e-08
3.69947e-08
-2.67258e-08
3.67425e-08
-2.99103e-08
3.59841e-08
-3.3051e-08
3.47475e-08
-3.61241e-08
3.30338e-08
-3.91086e-08
3.08493e-08
-4.19803e-08
2.81814e-08
-4.47114e-08
2.50233e-08
-4.72754e-08
2.13668e-08
-4.96268e-08
1.72163e-08
-5.17167e-08
1.25777e-08
-5.35066e-08
7.46643e-09
-5.49202e-08
1.92371e-09
-5.58985e-08
-3.99514e-09
-5.63618e-08
-1.02087e-08
-5.62374e-08
-1.66094e-08
-5.54386e-08
-2.30445e-08
-5.39014e-08
-2.93394e-08
-5.15649e-08
-3.52677e-08
-4.84016e-08
-4.05663e-08
-4.44153e-08
-4.49536e-08
-3.96651e-08
-4.81213e-08
-3.42761e-08
-4.979e-08
-2.84431e-08
-4.97052e-08
-2.24204e-08
-4.77088e-08
-1.6526e-08
-4.37668e-08
-1.11033e-08
-3.79946e-08
-6.48039e-09
-3.06719e-08
-2.95826e-09
-2.22358e-08
-7.5287e-10
-1.32181e-08
-4.22622e-09
-4.51507e-10
5.19304e-09
-1.63669e-09
1.39534e-08
-3.40561e-09
2.1135e-08
-5.6253e-09
2.69041e-08
-8.18255e-09
3.14177e-08
-1.09887e-08
3.48312e-08
-1.39697e-08
3.72922e-08
-1.70577e-08
3.8939e-08
-2.02132e-08
3.98735e-08
-2.33974e-08
4.01841e-08
-2.65896e-08
3.9929e-08
-2.9757e-08
3.91525e-08
-3.28923e-08
3.7877e-08
-3.59659e-08
3.61126e-08
-3.89747e-08
3.38547e-08
-4.18891e-08
3.10955e-08
-4.46925e-08
2.78239e-08
-4.7354e-08
2.40283e-08
-4.98396e-08
1.97046e-08
-5.21079e-08
1.48457e-08
-5.41123e-08
9.46917e-09
-5.57848e-08
3.60123e-09
-5.70627e-08
-2.71651e-09
-5.78649e-08
-9.41033e-09
-5.80993e-08
-1.63733e-08
-5.76809e-08
-2.34689e-08
-5.6512e-08
-3.05082e-08
-5.45085e-08
-3.72641e-08
-5.16214e-08
-4.34599e-08
-4.78093e-08
-4.876e-08
-4.31167e-08
-5.28211e-08
-3.76256e-08
-5.52761e-08
-3.15313e-08
-5.58001e-08
-2.50994e-08
-5.41431e-08
-1.86754e-08
-5.01917e-08
-1.26564e-08
-4.40109e-08
-7.45232e-09
-3.58788e-08
-3.42982e-09
-2.62566e-08
-8.81638e-10
-1.57648e-08
-5.10797e-09
-4.42721e-10
5.63644e-09
-1.61212e-09
1.51211e-08
-3.35808e-09
2.28774e-08
-5.54977e-09
2.90937e-08
-8.07577e-09
3.39415e-08
-1.08444e-08
3.7596e-08
-1.37748e-08
4.02253e-08
-1.68107e-08
4.19767e-08
-1.99066e-08
4.29705e-08
-2.30282e-08
4.33053e-08
-2.61531e-08
4.3051e-08
-2.92552e-08
4.2258e-08
-3.23284e-08
4.09505e-08
-3.53531e-08
3.9142e-08
-3.83263e-08
3.68249e-08
-4.12249e-08
3.39944e-08
-4.40414e-08
3.06372e-08
-4.67437e-08
2.67334e-08
-4.9317e-08
2.22713e-08
-5.1711e-08
1.72451e-08
-5.38906e-08
1.16499e-08
-5.57964e-08
5.50523e-09
-5.736e-08
-1.15422e-09
-5.8497e-08
-8.27053e-09
-5.91175e-08
-1.57502e-08
-5.91171e-08
-2.34684e-08
-5.83877e-08
-3.12415e-08
-5.68203e-08
-3.88365e-08
-5.43176e-08
-4.59595e-08
-5.08206e-08
-5.22571e-08
-4.63169e-08
-5.7327e-08
-4.08638e-08
-6.07287e-08
-3.46224e-08
-6.20403e-08
-2.78627e-08
-6.09071e-08
-2.0948e-08
-5.7103e-08
-1.43424e-08
-5.06208e-08
-8.52223e-09
-4.16929e-08
-3.95948e-09
-3.08217e-08
-1.02984e-09
-1.86973e-08
-6.13697e-09
-4.32547e-10
6.06908e-09
-1.57778e-09
1.62631e-08
-3.28525e-09
2.459e-08
-5.4325e-09
3.12433e-08
-7.90469e-09
3.64127e-08
-1.0606e-08
4.0298e-08
-1.3457e-08
4.30795e-08
-1.64046e-08
4.49202e-08
-1.93986e-08
4.59648e-08
-2.241e-08
4.63158e-08
-2.54148e-08
4.60565e-08
-2.83976e-08
4.52415e-08
-3.13488e-08
4.39026e-08
-3.4265e-08
4.20537e-08
-3.71365e-08
3.96939e-08
-3.99522e-08
3.68151e-08
-4.27146e-08
3.33948e-08
-4.53937e-08
2.94188e-08
-4.79823e-08
2.48585e-08
-5.04453e-08
1.9706e-08
-5.27457e-08
1.39503e-08
-5.4834e-08
7.59439e-09
-5.66497e-08
6.58555e-10
-5.81056e-08
-6.81133e-09
-5.91184e-08
-1.47439e-08
-5.95659e-08
-2.3017e-08
-5.93316e-08
-3.14751e-08
-5.82806e-08
-3.98848e-08
-5.62864e-08
-4.79511e-08
-5.32453e-08
-5.53011e-08
-4.90892e-08
-6.14789e-08
-4.38351e-08
-6.5982e-08
-3.76e-08
-6.82757e-08
-3.06289e-08
-6.78764e-08
-2.33044e-08
-6.44248e-08
-1.61332e-08
-5.77901e-08
-9.69253e-09
-4.81383e-08
-4.54971e-09
-3.59666e-08
-1.19644e-09
-2.20504e-08
-7.33342e-09
-4.20096e-10
6.48883e-09
-1.53211e-09
1.73772e-08
-3.19634e-09
2.62561e-08
-5.28725e-09
3.33298e-08
-7.68214e-09
3.88111e-08
-1.02938e-08
4.29048e-08
-1.30364e-08
4.58203e-08
-1.58515e-08
4.77408e-08
-1.87027e-08
4.88123e-08
-2.15526e-08
4.91641e-08
-2.43854e-08
4.88878e-08
-2.71878e-08
4.80451e-08
-2.99564e-08
4.66733e-08
-3.26923e-08
4.47894e-08
-3.53906e-08
4.23961e-08
-3.80536e-08
3.948e-08
-4.06809e-08
3.60217e-08
-4.32661e-08
3.19992e-08
-4.57937e-08
2.73901e-08
-4.82491e-08
2.21619e-08
-5.06022e-08
1.63014e-08
-5.28132e-08
9.80355e-09
-5.48266e-08
2.66999e-09
-5.6568e-08
-5.06882e-09
-5.79468e-08
-1.33604e-08
-5.88551e-08
-2.21145e-08
-5.91492e-08
-3.11779e-08
-5.86875e-08
-4.0347e-08
-5.73104e-08
-4.93324e-08
-5.48626e-08
-5.77472e-08
-5.12321e-08
-6.51132e-08
-4.63611e-08
-7.08498e-08
-4.0315e-08
-7.43214e-08
-3.32953e-08
-7.4899e-08
-2.56784e-08
-7.20451e-08
-1.80058e-08
-6.54596e-08
-1.0948e-08
-5.51947e-08
-5.19818e-09
-4.1715e-08
-1.38415e-09
-2.58594e-08
-8.71771e-09
-4.06724e-10
6.8959e-09
-1.48651e-09
1.84578e-08
-3.10439e-09
2.7872e-08
-5.12471e-09
3.53531e-08
-7.43432e-09
4.11173e-08
-9.9294e-09
4.54013e-08
-1.25285e-08
4.84271e-08
-1.51823e-08
5.03906e-08
-1.78418e-08
5.14705e-08
-2.04775e-08
5.18042e-08
-2.30808e-08
5.14906e-08
-2.56407e-08
5.06042e-08
-2.81607e-08
4.91921e-08
-3.06433e-08
4.72725e-08
-3.30972e-08
4.48474e-08
-3.55281e-08
4.19099e-08
-3.79435e-08
3.84375e-08
-4.03433e-08
3.44031e-08
-4.27332e-08
2.97745e-08
-4.50988e-08
2.45247e-08
-4.74211e-08
1.86292e-08
-4.96787e-08
1.20587e-08
-5.18192e-08
4.81422e-09
-5.37874e-08
-3.10001e-09
-5.54996e-08
-1.16517e-08
-5.68415e-08
-2.07689e-08
-5.76795e-08
-3.03388e-08
-5.78555e-08
-4.01758e-08
-5.71786e-08
-5.00067e-08
-5.54626e-08
-5.94674e-08
-5.25251e-08
-6.80495e-08
-4.8243e-08
-7.51285e-08
-4.26034e-08
-7.99661e-08
-3.57341e-08
-8.17673e-08
-2.79833e-08
-7.97964e-08
-1.99103e-08
-7.35304e-08
-1.22732e-08
-6.28362e-08
-5.90139e-09
-4.80869e-08
-1.59454e-09
-3.01705e-08
-1.03126e-08
-3.96463e-10
7.29196e-09
-1.44968e-09
1.95096e-08
-3.01967e-09
2.9444e-08
-4.97342e-09
3.7304e-08
-7.18101e-09
4.33269e-08
-9.54255e-09
4.77627e-08
-1.19778e-08
5.08581e-08
-1.44249e-08
5.28392e-08
-1.68458e-08
5.3894e-08
-1.92199e-08
5.41752e-08
-2.15332e-08
5.38044e-08
-2.37849e-08
5.28577e-08
-2.59855e-08
5.13908e-08
-2.81445e-08
4.94288e-08
-3.0274e-08
4.69783e-08
-3.23915e-08
4.40285e-08
-3.45118e-08
4.05598e-08
-3.66465e-08
3.6539e-08
-3.88069e-08
3.19338e-08
-4.09908e-08
2.67137e-08
-4.32009e-08
2.08338e-08
-4.54124e-08
1.42748e-08
-4.7601e-08
7.00453e-09
-4.97208e-08
-9.85323e-10
-5.16965e-08
-9.67622e-09
-5.34335e-08
-1.90356e-08
-5.47962e-08
-2.89738e-08
-5.56198e-08
-3.93469e-08
-5.57114e-08
-4.99206e-08
-5.48303e-08
-6.03439e-08
-5.27507e-08
-7.01272e-08
-4.92688e-08
-7.86095e-08
-4.42698e-08
-8.49679e-08
-3.77922e-08
-8.8244e-08
-3.01179e-08
-8.74734e-08
-2.17919e-08
-8.18518e-08
-1.36433e-08
-7.09836e-08
-6.65906e-09
-5.50738e-08
-1.82753e-09
-3.50005e-08
-1.21392e-08
-3.91804e-10
7.68324e-09
-1.42923e-09
2.05495e-08
-2.96671e-09
3.09829e-08
-4.85714e-09
3.91911e-08
-6.9624e-09
4.54323e-08
-9.17785e-09
4.99753e-08
-1.14144e-08
5.30987e-08
-1.36227e-08
5.50454e-08
-1.57619e-08
5.60332e-08
-1.78139e-08
5.62282e-08
-1.97804e-08
5.57657e-08
-2.16582e-08
5.47387e-08
-2.3468e-08
5.32029e-08
-2.52274e-08
5.11898e-08
-2.6958e-08
4.87105e-08
-2.86812e-08
4.57533e-08
-3.04261e-08
4.23019e-08
-3.22099e-08
3.83214e-08
-3.40491e-08
3.37775e-08
-3.59684e-08
2.86268e-08
-3.79633e-08
2.28348e-08
-4.00422e-08
1.63498e-08
-4.21864e-08
9.14548e-09
-4.43606e-08
1.19598e-09
-4.6523e-08
-7.5193e-09
-4.85801e-08
-1.69767e-08
-5.04188e-08
-2.71331e-08
-5.18766e-08
-3.78854e-08
-5.27534e-08
-4.90469e-08
-5.27877e-08
-6.03061e-08
-5.17044e-08
-7.12122e-08
-4.92225e-08
-8.10956e-08
-4.51111e-08
-8.90747e-08
-3.92975e-08
-9.40544e-08
-3.1952e-08
-9.48191e-08
-2.35747e-08
-9.02318e-08
-1.50302e-08
-7.95314e-08
-7.45891e-09
-6.26451e-08
-2.08074e-09
-4.03752e-08
-1.42215e-08
-3.97075e-10
8.08149e-09
-1.44332e-09
2.15937e-08
-2.97329e-09
3.25107e-08
-4.81288e-09
4.10367e-08
-6.82282e-09
4.74391e-08
-8.87784e-09
5.20338e-08
-1.08966e-08
5.51187e-08
-1.28249e-08
5.69749e-08
-1.46365e-08
5.78385e-08
-1.63123e-08
5.79091e-08
-1.7865e-08
5.73178e-08
-1.93022e-08
5.61786e-08
-2.06533e-08
5.45523e-08
-2.19397e-08
5.24747e-08
-2.31976e-08
4.99616e-08
-2.44471e-08
4.70075e-08
-2.57354e-08
4.35856e-08
-2.70837e-08
3.96687e-08
-2.85226e-08
3.52184e-08
-3.00783e-08
3.01861e-08
-3.17771e-08
2.45263e-08
-3.3621e-08
1.81963e-08
-3.56175e-08
1.11457e-08
-3.77567e-08
3.33227e-09
-3.99977e-08
-5.27487e-09
-4.2285e-08
-1.46883e-08
-4.45211e-08
-2.49021e-08
-4.65601e-08
-3.58486e-08
-4.8202e-08
-4.74023e-08
-4.91922e-08
-5.93214e-08
-4.92025e-08
-7.11972e-08
-4.78922e-08
-8.24116e-08
-4.49175e-08
-9.20475e-08
-4.00621e-08
-9.89068e-08
-3.33466e-08
-1.01536e-07
-2.51681e-08
-9.84094e-08
-1.63877e-08
-8.83102e-08
-8.29318e-09
-7.07432e-08
-2.35928e-09
-4.63037e-08
-1.65824e-08
-4.21577e-10
8.50222e-09
-1.51057e-09
2.26823e-08
-3.06763e-09
3.40684e-08
-4.89302e-09
4.28602e-08
-6.813e-09
4.93614e-08
-8.70538e-09
5.3922e-08
-1.04797e-08
5.68942e-08
-1.20933e-08
5.85858e-08
-1.35173e-08
5.92693e-08
-1.47646e-08
5.91498e-08
-1.58372e-08
5.83932e-08
-1.6767e-08
5.71073e-08
-1.7588e-08
5.53697e-08
-1.83293e-08
5.3218e-08
-1.90349e-08
5.06701e-08
-1.97424e-08
4.77166e-08
-2.04952e-08
4.43384e-08
-2.13294e-08
4.05049e-08
-2.22877e-08
3.61728e-08
-2.34015e-08
3.12997e-08
-2.4705e-08
2.58321e-08
-2.62241e-08
1.97173e-08
-2.79767e-08
1.28967e-08
-2.9971e-08
5.32342e-09
-3.21854e-08
-3.05384e-09
-3.45985e-08
-1.22821e-08
-3.71226e-08
-2.23704e-08
-3.96545e-08
-3.3319e-08
-4.20084e-08
-4.50494e-08
-4.39343e-08
-5.7395e-08
-4.51007e-08
-7.00365e-08
-4.50922e-08
-8.24127e-08
-4.34814e-08
-9.36604e-08
-3.98874e-08
-1.02506e-07
-3.41351e-08
-1.07283e-07
-2.64661e-08
-1.06081e-07
-1.76695e-08
-9.71029e-08
-9.14692e-09
-7.92687e-08
-2.6638e-09
-5.27893e-08
-1.92457e-08
-4.72702e-10
8.97427e-09
-1.6585e-09
2.38695e-08
-3.30071e-09
3.57122e-08
-5.15028e-09
4.47074e-08
-7.0037e-09
5.1213e-08
-8.72247e-09
5.56434e-08
-1.02287e-08
5.83983e-08
-1.14777e-08
5.98381e-08
-1.24675e-08
6.02593e-08
-1.32119e-08
5.98956e-08
-1.3741e-08
5.89196e-08
-1.40893e-08
5.74567e-08
-1.43064e-08
5.55853e-08
-1.443e-08
5.33448e-08
-1.45163e-08
5.07536e-08
-1.46077e-08
4.78074e-08
-1.47549e-08
4.44831e-08
-1.50046e-08
4.07545e-08
-1.54028e-08
3.6572e-08
-1.59949e-08
3.18928e-08
-1.68241e-08
2.66607e-08
-1.79315e-08
2.08201e-08
-1.934e-08
1.43109e-08
-2.10838e-08
7.06581e-09
-2.31676e-08
-9.74878e-10
-2.55772e-08
-9.87001e-09
-2.82799e-08
-1.96721e-08
-3.11868e-08
-3.0411e-08
-3.41545e-08
-4.208e-08
-3.6962e-08
-5.459e-08
-3.92754e-08
-6.77182e-08
-4.06663e-08
-8.10249e-08
-4.06051e-08
-9.37202e-08
-3.85586e-08
-1.04551e-07
-3.41395e-08
-1.11705e-07
-2.73433e-08
-1.12879e-07
-1.88172e-08
-1.05626e-07
-1.00126e-08
-8.80781e-08
-2.99253e-09
-5.98044e-08
-2.22389e-08
-5.64392e-10
9.53803e-09
-1.9254e-09
2.52337e-08
-3.73203e-09
3.752e-08
-5.65886e-09
4.66345e-08
-7.46433e-09
5.3021e-08
-9.00401e-09
5.71816e-08
-1.02021e-08
5.95951e-08
-1.10341e-08
6.06723e-08
-1.15194e-08
6.0742e-08
-1.16909e-08
6.00633e-08
-1.15958e-08
5.88262e-08
-1.12847e-08
5.71506e-08
-1.08236e-08
5.51193e-08
-1.02574e-08
5.27816e-08
-9.65239e-09
5.01473e-08
-9.05988e-09
4.72146e-08
-8.53082e-09
4.39612e-08
-8.13003e-09
4.03501e-08
-7.901e-09
3.63457e-08
-7.9008e-09
3.18948e-08
-8.18057e-09
2.69428e-08
-8.7899e-09
2.14269e-08
-9.77197e-09
1.52901e-08
-1.11677e-08
8.45944e-09
-1.30052e-08
8.63965e-10
-1.52996e-08
-7.57163e-09
-1.80465e-08
-1.69258e-08
-2.11998e-08
-2.72599e-08
-2.46567e-08
-3.8621e-08
-2.82396e-08
-5.1004e-08
-3.1656e-08
-6.4305e-08
-3.4468e-08
-7.82098e-08
-3.60993e-08
-9.20907e-08
-3.58728e-08
-1.0478e-07
-3.31575e-08
-1.14418e-07
-2.76536e-08
-1.18379e-07
-1.97595e-08
-1.13524e-07
-1.08699e-08
-9.69651e-08
-3.35546e-09
-6.7321e-08
-2.55943e-08
-7.16985e-10
1.02552e-08
-2.36484e-09
2.68793e-08
-4.43633e-09
3.95879e-08
-6.50393e-09
4.87002e-08
-8.27997e-09
5.47977e-08
-9.6128e-09
5.85161e-08
-1.04477e-08
6.04295e-08
-1.07896e-08
6.10123e-08
-1.06823e-08
6.06362e-08
-1.0185e-08
5.95715e-08
-9.38054e-09
5.80145e-08
-8.32557e-09
5.60993e-08
-7.09934e-09
5.3896e-08
-5.76901e-09
5.14523e-08
-4.40043e-09
4.87764e-08
-3.05379e-09
4.58654e-08
-1.79164e-09
4.26951e-08
-6.72385e-10
3.92298e-08
2.44532e-10
3.54292e-08