/*--------------------------------*- C++ -*----------------------------------*\
  =========                 |
  \\      /  F ield         | OpenFOAM: The Open Source CFD Toolbox
   \\    /   O peration     | Website:  https://openfoam.org
    \\  /    A nd           | Version:  9
     \\/     M anipulation  |
\*---------------------------------------------------------------------------*/
FoamFile
{
    format      ascii;
    class       volVectorField;
    location    "32";
    object      U;
}
// * * * * * * * * * * * * * * * * * * * * * * * * * * * * * * * * * * * * * //

dimensions      [0 1 -1 0 0 0 0];

internalField   nonuniform List<vector> 
1600
(
(5.02314e-07 -5.0591e-07 0)
(1.3383e-06 -4.09324e-07 0)
(9.77082e-07 -7.66264e-08 0)
(-9.52236e-07 2.805e-07 0)
(-4.45338e-06 5.72354e-07 0)
(-9.29244e-06 7.93169e-07 0)
(-1.51906e-05 9.58646e-07 0)
(-2.18713e-05 1.08733e-06 0)
(-2.90841e-05 1.16034e-06 0)
(-3.66134e-05 1.19079e-06 0)
(-4.42666e-05 1.21139e-06 0)
(-5.18844e-05 1.20408e-06 0)
(-5.92904e-05 1.15203e-06 0)
(-6.63413e-05 1.10766e-06 0)
(-7.28819e-05 1.03231e-06 0)
(-7.87557e-05 9.23879e-07 0)
(-8.3813e-05 7.72195e-07 0)
(-8.7877e-05 6.13257e-07 0)
(-9.08126e-05 4.20025e-07 0)
(-9.24822e-05 2.18448e-07 0)
(-9.27795e-05 -2.07923e-08 0)
(-9.16262e-05 -2.79033e-07 0)
(-8.89699e-05 -5.29898e-07 0)
(-8.4837e-05 -7.83921e-07 0)
(-7.9312e-05 -1.00704e-06 0)
(-7.2523e-05 -1.21421e-06 0)
(-6.46624e-05 -1.38204e-06 0)
(-5.60026e-05 -1.50362e-06 0)
(-4.6846e-05 -1.55743e-06 0)
(-3.75372e-05 -1.54461e-06 0)
(-2.8457e-05 -1.4493e-06 0)
(-1.99654e-05 -1.30519e-06 0)
(-1.24164e-05 -1.07542e-06 0)
(-6.12348e-06 -8.09955e-07 0)
(-1.33314e-06 -4.95927e-07 0)
(1.80682e-06 -1.68154e-07 0)
(3.24931e-06 1.77923e-07 0)
(3.14511e-06 4.67067e-07 0)
(1.97883e-06 6.32635e-07 0)
(4.75703e-07 4.7252e-07 0)
(4.25542e-07 -1.36321e-06 0)
(2.81736e-07 -2.31167e-07 0)
(-3.0069e-06 2.57852e-06 0)
(-1.00933e-05 5.65471e-06 0)
(-2.07158e-05 8.48127e-06 0)
(-3.45229e-05 1.08072e-05 0)
(-5.08892e-05 1.26198e-05 0)
(-6.92516e-05 1.39043e-05 0)
(-8.90185e-05 1.47831e-05 0)
(-0.000109492 1.5194e-05 0)
(-0.000130298 1.53012e-05 0)
(-0.000150995 1.50317e-05 0)
(-0.000171062 1.45052e-05 0)
(-0.00019001 1.35571e-05 0)
(-0.000207528 1.24177e-05 0)
(-0.000223241 1.08669e-05 0)
(-0.000236563 9.05708e-06 0)
(-0.00024716 6.98075e-06 0)
(-0.000254691 4.61005e-06 0)
(-0.000258813 1.95438e-06 0)
(-0.000259348 -8.91004e-07 0)
(-0.000255952 -3.82279e-06 0)
(-0.000248625 -6.73032e-06 0)
(-0.000237502 -9.62429e-06 0)
(-0.000222745 -1.22261e-05 0)
(-0.0002048 -1.45775e-05 0)
(-0.000184108 -1.63945e-05 0)
(-0.000161241 -1.77396e-05 0)
(-0.000137156 -1.83011e-05 0)
(-0.000112682 -1.82954e-05 0)
(-8.86043e-05 -1.75066e-05 0)
(-6.59221e-05 -1.59867e-05 0)
(-4.55526e-05 -1.38332e-05 0)
(-2.82218e-05 -1.11226e-05 0)
(-1.44328e-05 -8.07338e-06 0)
(-4.61208e-06 -4.78515e-06 0)
(1.15697e-06 -1.61544e-06 0)
(3.29897e-06 1.05216e-06 0)
(2.62115e-06 2.57392e-06 0)
(6.1955e-07 1.98113e-06 0)
(8.1562e-08 -1.01151e-06 0)
(-2.64743e-06 3.10774e-06 0)
(-1.04043e-05 1.00626e-05 0)
(-2.34507e-05 1.75877e-05 0)
(-4.14935e-05 2.45975e-05 0)
(-6.39909e-05 3.04147e-05 0)
(-9.01724e-05 3.50342e-05 0)
(-0.00011909 3.82884e-05 0)
(-0.000149929 4.05195e-05 0)
(-0.000181912 4.16374e-05 0)
(-0.000214252 4.17753e-05 0)
(-0.000246226 4.09472e-05 0)
(-0.000277182 3.93213e-05 0)
(-0.000306405 3.68189e-05 0)
(-0.000333245 3.34323e-05 0)
(-0.000357144 2.92386e-05 0)
(-0.000377365 2.42195e-05 0)
(-0.00039334 1.83947e-05 0)
(-0.000404592 1.18494e-05 0)
(-0.000410621 4.71398e-06 0)
(-0.000411041 -2.87208e-06 0)
(-0.000405641 -1.06445e-05 0)
(-0.000394397 -1.84827e-05 0)
(-0.000377387 -2.59969e-05 0)
(-0.000354991 -3.2957e-05 0)
(-0.0003277 -3.90316e-05 0)
(-0.000296319 -4.38899e-05 0)
(-0.000261796 -4.72588e-05 0)
(-0.000225295 -4.904e-05 0)
(-0.000188083 -4.89518e-05 0)
(-0.000151306 -4.70432e-05 0)
(-0.000116444 -4.3367e-05 0)
(-8.4701e-05 -3.80367e-05 0)
(-5.71653e-05 -3.13444e-05 0)
(-3.46287e-05 -2.35986e-05 0)
(-1.75838e-05 -1.55121e-05 0)
(-6.31724e-06 -7.63098e-06 0)
(-3.34092e-07 -9.53604e-07 0)
(1.42604e-06 3.27796e-06 0)
(4.98175e-07 3.23687e-06 0)
(-3.05132e-07 1.02183e-06 0)
(-6.19524e-06 1.03988e-05 0)
(-1.89737e-05 2.33377e-05 0)
(-3.85114e-05 3.67321e-05 0)
(-6.42965e-05 4.89501e-05 0)
(-9.54505e-05 5.92749e-05 0)
(-0.00013095 6.74057e-05 0)
(-0.000169718 7.34162e-05 0)
(-0.000210734 7.72537e-05 0)
(-0.000253073 7.92244e-05 0)
(-0.000295764 7.92869e-05 0)
(-0.000337845 7.7634e-05 0)
(-0.000378395 7.43269e-05 0)
(-0.000416636 6.94191e-05 0)
(-0.000451672 6.29106e-05 0)
(-0.000482745 5.47802e-05 0)
(-0.000508977 4.5183e-05 0)
(-0.000529669 3.41364e-05 0)
(-0.000544116 2.17329e-05 0)
(-0.000551771 8.36485e-06 0)
(-0.000552243 -5.82568e-06 0)
(-0.000545203 -2.0354e-05 0)
(-0.000530601 -3.48825e-05 0)
(-0.000508631 -4.8801e-05 0)
(-0.000479767 -6.16686e-05 0)
(-0.000444649 -7.28602e-05 0)
(-0.000404174 -8.1912e-05 0)
(-0.000359588 -8.83191e-05 0)
(-0.000312306 -9.17852e-05 0)
(-0.000263841 -9.18886e-05 0)
(-0.000215826 -8.86932e-05 0)
(-0.000169835 -8.22933e-05 0)
(-0.000127481 -7.28682e-05 0)
(-9.00586e-05 -6.10598e-05 0)
(-5.87363e-05 -4.73727e-05 0)
(-3.42233e-05 -3.29666e-05 0)
(-1.66757e-05 -1.89034e-05 0)
(-5.81966e-06 -6.68609e-06 0)
(-6.4658e-07 1.72267e-06 0)
(3.07831e-07 3.6646e-06 0)
(-6.57741e-07 4.9007e-06 0)
(-9.71554e-06 2.20781e-05 0)
(-2.78185e-05 4.26712e-05 0)
(-5.42348e-05 6.30862e-05 0)
(-8.78102e-05 8.14154e-05 0)
(-0.000127441 9.6968e-05 0)
(-0.000171913 0.000109233 0)
(-0.000220054 0.000118222 0)
(-0.000270643 0.000123954 0)
(-0.00032257 0.000126672 0)
(-0.000374777 0.000126484 0)
(-0.000426008 0.000123693 0)
(-0.000475333 0.000118185 0)
(-0.000521704 0.000110165 0)
(-0.00056418 9.95742e-05 0)
(-0.000601756 8.65374e-05 0)
(-0.000633425 7.11658e-05 0)
(-0.000658497 5.35591e-05 0)
(-0.00067601 3.40293e-05 0)
(-0.000685369 1.28242e-05 0)
(-0.000686119 -9.40669e-06 0)
(-0.000677914 -3.22775e-05 0)
(-0.000660721 -5.4982e-05 0)
(-0.000634688 -7.68648e-05 0)
(-0.000600367 -9.69983e-05 0)
(-0.000558441 -0.00011462 0)
(-0.000510069 -0.000128892 0)
(-0.00045662 -0.000139221 0)
(-0.000399562 -0.000144875 0)
(-0.000340791 -0.000145574 0)
(-0.000282191 -0.000141154 0)
(-0.000225588 -0.000131767 0)
(-0.000172913 -0.000117811 0)
(-0.000125721 -9.99957e-05 0)
(-8.53664e-05 -7.95184e-05 0)
(-5.28168e-05 -5.75943e-05 0)
(-2.84353e-05 -3.6062e-05 0)
(-1.2124e-05 -1.68912e-05 0)
(-3.03441e-06 -2.71413e-06 0)
(8.91959e-08 2.94167e-06 0)
(-9.99074e-07 1.06031e-05 0)
(-1.31841e-05 3.81386e-05 0)
(-3.65768e-05 6.80307e-05 0)
(-6.98439e-05 9.66806e-05 0)
(-0.000111141 0.000122113 0)
(-0.000159043 0.000143398 0)
(-0.000212281 0.000160139 0)
(-0.000269406 0.000172226 0)
(-0.00032908 0.0001799 0)
(-0.000390063 0.000183272 0)
(-0.00045102 0.000182665 0)
(-0.000510824 0.000178297 0)
(-0.000568308 0.000170092 0)
(-0.000622308 0.00015832 0)
(-0.000671724 0.000142927 0)
(-0.000715445 0.000124099 0)
(-0.000752435 0.000101938 0)
(-0.000781735 7.66502e-05 0)
(-0.000802465 4.87161e-05 0)
(-0.000813815 1.85179e-05 0)
(-0.000815334 -1.3234e-05 0)
(-0.000806626 -4.57709e-05 0)
(-0.00078756 -7.80861e-05 0)
(-0.00075833 -0.000109221 0)
(-0.000719432 -0.000137969 0)
(-0.000671701 -0.000163179 0)
(-0.000616297 -0.000183863 0)
(-0.000554649 -0.000198896 0)
(-0.000488515 -0.000207572 0)
(-0.000419968 -0.000209373 0)
(-0.000351091 -0.000203958 0)
(-0.000283996 -0.000191591 0)
(-0.000220798 -0.000172836 0)
(-0.000163546 -0.00014857 0)
(-0.000113815 -0.000120339 0)
(-7.27804e-05 -8.98903e-05 0)
(-4.10667e-05 -5.96071e-05 0)
(-1.87562e-05 -3.20837e-05 0)
(-5.51479e-06 -1.05359e-05 0)
(-1.04083e-07 9.73043e-07 0)
(-1.32476e-06 1.80424e-05 0)
(-1.65432e-05 5.84864e-05 0)
(-4.50136e-05 9.9462e-05 0)
(-8.48644e-05 0.00013747 0)
(-0.00013373 0.000170761 0)
(-0.000189778 0.000198255 0)
(-0.000251485 0.000219681 0)
(-0.000317237 0.00023509 0)
(-0.000385567 0.00024459 0)
(-0.000455111 0.000248586 0)
(-0.000524432 0.000247361 0)
(-0.000592357 0.000240959 0)
(-0.000657591 0.000229648 0)
(-0.000718821 0.000213524 0)
(-0.000774964 0.000192723 0)
(-0.000824731 0.000167277 0)
(-0.000867048 0.00013749 0)
(-0.000900857 0.000103592 0)
(-0.000925072 6.61597e-05 0)
(-0.00093901 2.58067e-05 0)
(-0.000941963 -1.66498e-05 0)
(-0.000933468 -6.00366e-05 0)
(-0.000913412 -0.000103309 0)
(-0.000881855 -0.000144977 0)
(-0.000839275 -0.00018365 0)
(-0.000786529 -0.000217794 0)
(-0.000724789 -0.000245949 0)
(-0.000655585 -0.000266911 0)
(-0.000580864 -0.000279523 0)
(-0.000502651 -0.000283067 0)
(-0.000423413 -0.000277169 0)
(-0.000345644 -0.000261974 0)
(-0.000271663 -0.000238185 0)
(-0.00020377 -0.000207057 0)
(-0.00014397 -0.000170337 0)
(-9.38394e-05 -0.000130354 0)
(-5.43019e-05 -9.00016e-05 0)
(-2.57382e-05 -5.2544e-05 0)
(-8.022e-06 -2.17492e-05 0)
(-2.94971e-07 -2.23833e-06 0)
(-1.59494e-06 2.71181e-05 0)
(-1.96237e-05 8.29497e-05 0)
(-5.30543e-05 0.000136718 0)
(-9.92481e-05 0.000185249 0)
(-0.000155329 0.000227039 0)
(-0.000219225 0.00026123 0)
(-0.000289013 0.000287578 0)
(-0.000363071 0.000306308 0)
(-0.000439696 0.000317703 0)
(-0.00051733 0.000322179 0)
(-0.000594713 0.00032 0)
(-0.00067049 0.000311402 0)
(-0.00074315 0.000296643 0)
(-0.000811474 0.000275693 0)
(-0.000874289 0.000248834 0)
(-0.000930212 0.000216257 0)
(-0.000978076 0.000178027 0)
(-0.00101674 0.00013474 0)
(-0.00104508 8.69159e-05 0)
(-0.00106223 3.53917e-05 0)
(-0.00106735 -1.87631e-05 0)
(-0.00106006 -7.42735e-05 0)
(-0.00103997 -0.000129689 0)
(-0.00100704 -0.00018328 0)
(-0.000961747 -0.000233213 0)
(-0.000904791 -0.000277681 0)
(-0.000837426 -0.000314736 0)
(-0.000761183 -0.000342865 0)
(-0.000677958 -0.000360581 0)
(-0.000590199 -0.00036675 0)
(-0.000500446 -0.000361037 0)
(-0.000411449 -0.000343407 0)
(-0.000326016 -0.000314612 0)
(-0.000246855 -0.00027616 0)
(-0.000176301 -0.000230223 0)
(-0.000116365 -0.000179616 0)
(-6.83493e-05 -0.000127682 0)
(-3.29391e-05 -7.85146e-05 0)
(-1.05456e-05 -3.64041e-05 0)
(-4.58036e-07 -6.69274e-06 0)
(-1.86457e-06 3.77189e-05 0)
(-2.25569e-05 0.000111282 0)
(-6.05957e-05 0.000179428 0)
(-0.000112776 0.000239717 0)
(-0.000175708 0.000290711 0)
(-0.000247058 0.00033196 0)
(-0.000324658 0.000363475 0)
(-0.00040653 0.000385587 0)
(-0.000490989 0.000398924 0)
(-0.000576504 0.000403677 0)
(-0.000661574 0.000400379 0)
(-0.000744775 0.000389338 0)
(-0.00082485 0.000370776 0)
(-0.000900265 0.000344732 0)
(-0.000969684 0.000311472 0)
(-0.00103199 0.000271111 0)
(-0.00108585 0.000223967 0)
(-0.00112988 0.000170654 0)
(-0.00116299 0.000111674 0)
(-0.00118418 4.81964e-05 0)
(-0.00119252 -1.87316e-05 0)
(-0.00118738 -8.74785e-05 0)
(-0.00116835 -0.00015628 0)
(-0.00113517 -0.000223123 0)
(-0.00108815 -0.00028582 0)
(-0.00102794 -0.000342052 0)
(-0.000955636 -0.000389669 0)
(-0.000872846 -0.000426363 0)
(-0.000781441 -0.000450511 0)
(-0.000683987 -0.000460646 0)
(-0.000583392 -0.000455972 0)
(-0.00048265 -0.000436437 0)
(-0.000385002 -0.000402871 0)
(-0.000293603 -0.000356833 0)
(-0.000211335 -0.00030088 0)
(-0.000140598 -0.000238373 0)
(-8.33263e-05 -0.000173306 0)
(-4.06636e-05 -0.000110422 0)
(-1.31947e-05 -5.48275e-05 0)
(-6.16675e-07 -1.24084e-05 0)
(-2.10062e-06 4.97426e-05 0)
(-2.527e-05 0.000143152 0)
(-6.75745e-05 0.00022733 0)
(-0.000125323 0.000300362 0)
(-0.00019477 0.000361311 0)
(-0.000273081 0.00041005 0)
(-0.000357924 0.000446944 0)
(-0.000447154 0.000472646 0)
(-0.000539115 0.000487718 0)
(-0.000632122 0.000492751 0)
(-0.000724569 0.00048826 0)
(-0.000815077 0.000474582 0)
(-0.000902247 0.00045199 0)
(-0.000984652 0.000420676 0)
(-0.00106103 0.000380676 0)
(-0.00113001 0.000332258 0)
(-0.00119009 0.000275868 0)
(-0.00124017 0.000211965 0)
(-0.00127885 0.000141296 0)
(-0.001305 6.50266e-05 0)
(-0.00131765 -1.54819e-05 0)
(-0.00131584 -9.84937e-05 0)
(-0.00129905 -0.000181936 0)
(-0.00126684 -0.000263415 0)
(-0.00121923 -0.000340368 0)
(-0.0011568 -0.00041014 0)
(-0.00108044 -0.000469931 0)
(-0.000991636 -0.00051713 0)
(-0.000892422 -0.000549337 0)
(-0.000785371 -0.000564843 0)
(-0.000673521 -0.0005624 0)
(-0.000560417 -0.000541821 0)
(-0.000449662 -0.000503719 0)
(-0.000344962 -0.000449882 0)
(-0.000249838 -0.00038321 0)
(-0.000167311 -0.000307522 0)
(-9.98203e-05 -0.000227597 0)
(-4.90392e-05 -0.000148894 0)
(-1.60674e-05 -7.72675e-05 0)
(-7.98059e-07 -1.94675e-05 0)
(-2.31183e-06 6.30739e-05 0)
(-2.77331e-05 0.000178319 0)
(-7.39532e-05 0.000280048 0)
(-0.000136823 0.000366811 0)
(-0.00021217 0.000438371 0)
(-0.000296966 0.000495032 0)
(-0.000388532 0.000537646 0)
(-0.000484711 0.000566922 0)
(-0.000583672 0.000583771 0)
(-0.0006837 0.000589112 0)
(-0.000783168 0.000583358 0)
(-0.000880659 0.000567014 0)
(-0.00097483 0.000540361 0)
(-0.0010643 0.000503521 0)
(-0.00114761 0.000456689 0)
(-0.0012234 0.000400172 0)
(-0.00129035 0.000334176 0)
(-0.00134705 0.000259365 0)
(-0.00139208 0.000176601 0)
(-0.00142423 8.69983e-05 0)
(-0.00144223 -7.84283e-06 0)
(-0.00144509 -0.000106105 0)
(-0.00143186 -0.000205267 0)
(-0.0014019 -0.00030286 0)
(-0.00135514 -0.000395734 0)
(-0.00129172 -0.000480852 0)
(-0.00121237 -0.000554819 0)
(-0.00111839 -0.000614428 0)
(-0.00101175 -0.000656825 0)
(-0.00089515 -0.000679515 0)
(-0.000771974 -0.000680882 0)
(-0.000645905 -0.000660353 0)
(-0.000521077 -0.000618293 0)
(-0.000401976 -0.000556642 0)
(-0.000292747 -0.000478473 0)
(-0.000197088 -0.000388265 0)
(-0.000118266 -0.000291499 0)
(-5.84703e-05 -0.00019452 0)
(-1.92389e-05 -0.000104119 0)
(-9.74225e-07 -2.79985e-05 0)
(-2.50787e-06 7.75684e-05 0)
(-2.99392e-05 0.000216552 0)
(-7.96085e-05 0.000337048 0)
(-0.000147152 0.00043854 0)
(-0.000227887 0.000521368 0)
(-0.000318395 0.000586367 0)
(-0.000416123 0.000634796 0)
(-0.000518725 0.000667841 0)
(-0.000624076 0.000686614 0)
(-0.000730597 0.000692206 0)
(-0.000836699 0.000685307 0)
(-0.000940885 0.000666292 0)
(-0.00104186 0.000635638 0)
(-0.00113817 0.00059339 0)
(-0.00122842 0.000539813 0)
(-0.00131137 0.000475049 0)
(-0.00138553 0.000399468 0)
(-0.00144937 0.000313642 0)
(-0.00150153 0.000218507 0)
(-0.00154058 0.00011516 0)
(-0.00156519 5.3718e-06 0)
(-0.00157386 -0.000108875 0)
(-0.00156565 -0.000224993 0)
(-0.0015396 -0.000339989 0)
(-0.00149508 -0.000450578 0)
(-0.00143214 -0.000552925 0)
(-0.00135106 -0.000643288 0)
(-0.00125305 -0.000717637 0)
(-0.0011399 -0.000772467 0)
(-0.0010142 -0.000804645 0)
(-0.000879553 -0.000811814 0)
(-0.000740052 -0.00079267 0)
(-0.000600371 -0.000747606 0)
(-0.000465626 -0.000678296 0)
(-0.000340832 -0.000588054 0)
(-0.000230704 -0.000481913 0)
(-0.000139157 -0.000366252 0)
(-6.91431e-05 -0.000248185 0)
(-2.29307e-05 -0.000135903 0)
(-1.18931e-06 -3.81835e-05 0)
(-2.67615e-06 9.31108e-05 0)
(-3.18138e-05 0.000257427 0)
(-8.45938e-05 0.000397902 0)
(-0.000156109 0.000514929 0)
(-0.000241511 0.000609596 0)
(-0.000337284 0.000683349 0)
(-0.000440437 0.0007378 0)
(-0.000548675 0.000774787 0)
(-0.000659872 0.000795686 0)
(-0.00077223 0.000801622 0)
(-0.000884402 0.000793559 0)
(-0.000994807 0.000772115 0)
(-0.00110214 0.000737569 0)
(-0.00120514 0.000690138 0)
(-0.00130232 0.000629983 0)
(-0.0013924 0.000557172 0)
(-0.00147396 0.000472222 0)
(-0.00154546 0.000375463 0)
(-0.00160543 0.000267873 0)
(-0.00165226 0.000150563 0)
(-0.00168438 2.54023e-05 0)
(-0.00170038 -0.000105544 0)
(-0.00169862 -0.000239554 0)
(-0.00167799 -0.000373318 0)
(-0.00163755 -0.000503182 0)
(-0.00157677 -0.000624893 0)
(-0.00149561 -0.000733888 0)
(-0.00139496 -0.000825657 0)
(-0.0012764 -0.000895614 0)
(-0.00114246 -0.000939816 0)
(-0.000996604 -0.000955171 0)
(-0.000843482 -0.0009395 0)
(-0.000688319 -0.000892646 0)
(-0.000536825 -0.000816136 0)
(-0.000395102 -0.000713433 0)
(-0.000268857 -0.000590054 0)
(-0.000162949 -0.000453087 0)
(-8.13559e-05 -0.000311051 0)
(-2.72041e-05 -0.000173368 0)
(-1.44064e-06 -5.02736e-05 0)
(-2.79899e-06 0.000109554 0)
(-3.34087e-05 0.00030055 0)
(-8.87344e-05 0.000462056 0)
(-0.000163691 0.0005954 0)
(-0.000253054 0.000702419 0)
(-0.000353191 0.000785199 0)
(-0.000461045 0.000846092 0)
(-0.000574059 0.000887137 0)
(-0.000690322 0.000910246 0)
(-0.000807989 0.000916775 0)
(-0.000925456 0.000907778 0)
(-0.00104143 0.000884072 0)
(-0.00115468 0.000845832 0)
(-0.00126384 0.000793508 0)
(-0.00136763 0.000727039 0)
(-0.00146474 0.000646639 0)
(-0.00155374 0.000552519 0)
(-0.00163313 0.000445153 0)
(-0.00170135 0.000325296 0)
(-0.00175663 0.000194153 0)
(-0.00179735 5.34185e-05 0)
(-0.00182166 -9.46731e-05 0)
(-0.00182786 -0.000247321 0)
(-0.00181434 -0.00040108 0)
(-0.00177977 -0.000551799 0)
(-0.00172313 -0.000694822 0)
(-0.00164392 -0.000824991 0)
(-0.00154257 -0.000936915 0)
(-0.00142021 -0.00102505 0)
(-0.00127926 -0.00108439 0)
(-0.00112309 -0.00111073 0)
(-0.000956474 -0.00110108 0)
(-0.000785418 -0.00105431 0)
(-0.000616292 -0.000971523 0)
(-0.000456223 -0.000856146 0)
(-0.000312126 -0.000714167 0)
(-0.000190138 -0.00055363 0)
(-9.54896e-05 -0.000384445 0)
(-3.21278e-05 -0.000217392 0)
(-1.76049e-06 -6.46016e-05 0)
(-2.88615e-06 0.0001267 0)
(-3.46882e-05 0.000345517 0)
(-9.20228e-05 0.000528877 0)
(-0.000169638 0.000679203 0)
(-0.000262211 0.000799019 0)
(-0.000365941 0.0008912 0)
(-0.000477546 0.000958749 0)
(-0.000594599 0.00100404 0)
(-0.000714954 0.00102949 0)
(-0.000836877 0.00103675 0)
(-0.000958909 0.00102715 0)
(-0.00107973 0.00100136 0)
(-0.00119809 0.000959897 0)
(-0.0013128 0.000903045 0)
(-0.00142264 0.000830804 0)
(-0.00152632 0.000743226 0)
(-0.00162248 0.000640492 0)
(-0.00170969 0.000522993 0)
(-0.00178629 0.000391294 0)
(-0.00185047 0.000246629 0)
(-0.00190042 9.04146e-05 0)
(-0.00193419 -7.49585e-05 0)
(-0.00194969 -0.00024681 0)
(-0.00194493 -0.00042142 0)
(-0.00191814 -0.000594438 0)
(-0.0018678 -0.00076069 0)
(-0.00179291 -0.000914447 0)
(-0.00169308 -0.00104941 0)
(-0.0015691 -0.00115899 0)
(-0.00142302 -0.00123702 0)
(-0.00125792 -0.00127778 0)
(-0.00107874 -0.00127726 0)
(-0.000891802 -0.00123306 0)
(-0.000704351 -0.0011454 0)
(-0.000524691 -0.00101768 0)
(-0.000361154 -0.00085603 0)
(-0.000221346 -0.000669665 0)
(-0.000111786 -0.000469795 0)
(-3.78968e-05 -0.000269031 0)
(-2.13844e-06 -8.15472e-05 0)
(-2.94353e-06 0.000144382 0)
(-3.55543e-05 0.000391865 0)
(-9.43281e-05 0.000597747 0)
(-0.000173965 0.000765616 0)
(-0.000268946 0.000898549 0)
(-0.000375182 0.00100044 0)
(-0.00048966 0.00107472 0)
(-0.000609701 0.0011245 0)
(-0.00073316 0.00115253 0)
(-0.000858375 0.00116066 0)
(-0.000983881 0.00115062 0)
(-0.00110851 0.00112312 0)
(-0.00123099 0.00107885 0)
(-0.00135026 0.00101796 0)
(-0.00146532 0.000940591 0)
(-0.00157482 0.000846475 0)
(-0.00167753 0.000735868 0)
(-0.00177212 0.000608869 0)
(-0.00185692 0.000466034 0)
(-0.00193006 0.000308352 0)
(-0.00198963 0.000137103 0)
(-0.00203351 -4.54472e-05 0)
(-0.00205947 -0.000236596 0)
(-0.002065 -0.000432585 0)
(-0.00204793 -0.000628958 0)
(-0.00200618 -0.000820094 0)
(-0.00193809 -0.000999693 0)
(-0.00184261 -0.00116053 0)
(-0.00171987 -0.00129513 0)
(-0.00157115 -0.00139567 0)
(-0.00139929 -0.00145497 0)
(-0.00120907 -0.00146738 0)
(-0.0010069 -0.00142884 0)
(-0.000801034 -0.0013386 0)
(-0.000600923 -0.00119941 0)
(-0.00041638 -0.0010175 0)
(-0.000256885 -0.000802946 0)
(-0.000130604 -0.000568666 0)
(-4.46626e-05 -0.00032937 0)
(-2.60139e-06 -0.000101543 0)
(-2.97563e-06 0.000162416 0)
(-3.60991e-05 0.000439125 0)
(-9.56533e-05 0.00066808 0)
(-0.000176508 0.000853695 0)
(-0.000273011 0.00100014 0)
(-0.000380923 0.00111191 0)
(-0.000497156 0.00119309 0)
(-0.000619021 0.0012475 0)
(-0.000744466 0.00127815 0)
(-0.000871746 0.00128749 0)
(-0.000999509 0.00127711 0)
(-0.00112665 0.00124832 0)
(-0.00125197 0.00120164 0)
(-0.0013746 0.00113729 0)
(-0.00149362 0.00105527 0)
(-0.00160786 0.000955467 0)
(-0.00171617 0.00083778 0)
(-0.00181725 0.000702258 0)
(-0.00190951 0.000549225 0)
(-0.00199124 0.000379292 0)
(-0.00206038 0.000193928 0)
(-0.00211474 -5.26128e-06 0)
(-0.00215186 -0.000215389 0)
(-0.00216897 -0.000432921 0)
(-0.00216341 -0.000653228 0)
(-0.00213256 -0.000870559 0)
(-0.0020741 -0.00107798 0)
(-0.00198616 -0.00126753 0)
(-0.00186791 -0.00143047 0)
(-0.00171983 -0.00155763 0)
(-0.00154423 -0.00164006 0)
(-0.00134524 -0.00166978 0)
(-0.0011295 -0.00164109 0)
(-0.000905893 -0.0015515 0)
(-0.000684871 -0.00140243 0)
(-0.000478075 -0.00120014 0)
(-0.000297063 -0.00095544 0)
(-0.000152117 -0.000682843 0)
(-5.24968e-05 -0.000399712 0)
(-3.1467e-06 -0.000125118 0)
(-2.95923e-06 0.000180606 0)
(-3.61344e-05 0.000486836 0)
(-9.60647e-05 0.000739128 0)
(-0.0001774 0.000942695 0)
(-0.000274393 0.0011028 0)
(-0.000382924 0.00122456 0)
(-0.000499844 0.0013128 0)
(-0.00062236 0.00137178 0)
(-0.000748406 0.00140511 0)
(-0.000876483 0.00141569 0)
(-0.00100507 0.00140541 0)
(-0.00113309 0.00137551 0)
(-0.00125984 0.00132689 0)
(-0.00138433 0.00125957 0)
(-0.00150571 0.00117367 0)
(-0.00162311 0.00106898 0)
(-0.00173546 0.000945181 0)
(-0.0018417 0.000802148 0)
(-0.00194044 0.000640008 0)
(-0.00202975 0.000459144 0)
(-0.0021079 0.000260629 0)
(-0.00217262 4.58854e-05 0)
(-0.00222112 -0.000182396 0)
(-0.0022507 -0.000421021 0)
(-0.00225825 -0.000665312 0)
(-0.00224047 -0.000909455 0)
(-0.00219439 -0.00114616 0)
(-0.00211734 -0.00136684 0)
(-0.00200744 -0.00156144 0)
(-0.00186413 -0.00171947 0)
(-0.00168853 -0.00182976 0)
(-0.00148421 -0.00188213 0)
(-0.00125758 -0.00186835 0)
(-0.00101765 -0.00178348 0)
(-0.000776051 -0.00162735 0)
(-0.000546297 -0.00140539 0)
(-0.000342154 -0.00112891 0)
(-0.000176617 -0.000814269 0)
(-6.15998e-05 -0.000481505 0)
(-3.8168e-06 -0.000152858 0)
(-2.8984e-06 0.000198752 0)
(-3.59469e-05 0.000534509 0)
(-9.55268e-05 0.000810145 0)
(-0.000176551 0.0010319 0)
(-0.000273184 0.00120568 0)
(-0.000381307 0.00133735 0)
(-0.00049774 0.00143243 0)
(-0.000619674 0.00149608 0)
(-0.000744946 0.00153211 0)
(-0.000872072 0.00154394 0)
(-0.000999848 0.00153378 0)
(-0.00112727 0.00150307 0)
(-0.0012535 0.00145273 0)
(-0.00137785 0.00138304 0)
(-0.00149968 0.00129402 0)
(-0.00161839 0.00118528 0)
(-0.00173297 0.00105639 0)
(-0.0018426 0.000907025 0)
(-0.00194591 0.000737157 0)
(-0.00204144 0.000546781 0)
(-0.00212744 0.000336565 0)
(-0.0022016 0.000107872 0)
(-0.00226133 -0.000137332 0)
(-0.00230375 -0.000395923 0)
(-0.00232533 -0.000663537 0)
(-0.00232255 -0.000934382 0)
(-0.00229161 -0.00120107 0)
(-0.00222887 -0.00145451 0)
(-0.00213145 -0.00168382 0)
(-0.00199748 -0.00187666 0)
(-0.00182676 -0.00201995 0)
(-0.00162176 -0.00210088 0)
(-0.00138786 -0.00210794 0)
(-0.00113433 -0.00203321 0)
(-0.00087355 -0.00187401 0)
(-0.000620654 -0.00163418 0)
(-0.000392196 -0.00132508 0)
(-0.000204275 -0.000964736 0)
(-7.20205e-05 -0.000576148 0)
(-4.61766e-06 -0.000185399 0)
(-2.79783e-06 0.000216667 0)
(-3.53338e-05 0.000581682 0)
(-9.41287e-05 0.000880529 0)
(-0.000174137 0.00112029 0)
(-0.000269588 0.00130761 0)
(-0.000376359 0.00144904 0)
(-0.000491029 0.00155093 0)
(-0.000610891 0.00161897 0)
(-0.000733937 0.00165762 0)
(-0.000858596 0.00167058 0)
(-0.000983747 0.00166042 0)
(-0.00110846 0.00162902 0)
(-0.00123212 0.00157733 0)
(-0.0013542 0.00150578 0)
(-0.0014743 0.00141413 0)
(-0.00159189 0.00130211 0)
(-0.00170638 0.00116926 0)
(-0.00181702 0.00101493 0)
(-0.00192285 0.000838798 0)
(-0.00202259 0.00064062 0)
(-0.00211457 0.000420655 0)
(-0.00219688 0.000179817 0)
(-0.00226702 -8.03526e-05 0)
(-0.00232184 -0.000357162 0)
(-0.00235794 -0.000646587 0)
(-0.00237137 -0.000943322 0)
(-0.00235779 -0.00123986 0)
(-0.00231281 -0.0015269 0)
(-0.00223221 -0.00179298 0)
(-0.00211254 -0.00202418 0)
(-0.00195233 -0.00220565 0)
(-0.00175217 -0.00232119 0)
(-0.00151622 -0.00235598 0)
(-0.00125314 -0.00229821 0)
(-0.000975574 -0.00214132 0)
(-0.000700493 -0.00188685 0)
(-0.000447102 -0.0015453 0)
(-0.000235122 -0.00113609 0)
(-8.39099e-05 -0.000685383 0)
(-5.59593e-06 -0.000223454 0)
(-2.68906e-06 0.000234211 0)
(-3.45603e-05 0.000627947 0)
(-9.207e-05 0.000949729 0)
(-0.00017043 0.00120725 0)
(-0.00026393 0.0014077 0)
(-0.000368283 0.00155864 0)
(-0.000480027 0.00166699 0)
(-0.000596522 0.00173896 0)
(-0.00071576 0.00177986 0)
(-0.000836144 0.00179368 0)
(-0.000956673 0.0017835 0)
(-0.00107655 0.00175135 0)
(-0.00119533 0.00169843 0)
(-0.00131275 0.00162521 0)
(-0.00142859 0.00153155 0)
(-0.00154243 0.00141718 0)
(-0.00165411 0.00128137 0)
(-0.00176313 0.00112343 0)
(-0.00186874 0.000942561 0)
(-0.0019701 0.000738472 0)
(-0.00206578 0.000510845 0)
(-0.00215413 0.00026016 0)
(-0.00223288 -1.24831e-05 0)
(-0.00229917 -0.000304988 0)
(-0.00234949 -0.000614015 0)
(-0.00237983 -0.000934558 0)
(-0.00238529 -0.00125978 0)
(-0.00236084 -0.00158025 0)
(-0.00230105 -0.00188406 0)
(-0.00220114 -0.00215659 0)
(-0.00205746 -0.00238057 0)
(-0.00186868 -0.00253713 0)
(-0.00163719 -0.00260727 0)
(-0.00137005 -0.00257432 0)
(-0.00107981 -0.00242697 0)
(-0.00078455 -0.00216293 0)
(-0.000506435 -0.00179049 0)
(-0.000269332 -0.00132997 0)
(-9.73359e-05 -0.000810734 0)
(-6.7448e-06 -0.0002678 0)
(-2.56368e-06 0.000251271 0)
(-3.35419e-05 0.000673107 0)
(-8.95122e-05 0.00101737 0)
(-0.000165892 0.00129208 0)
(-0.000256739 0.00150528 0)
(-0.000357766 0.00166503 0)
(-0.000465549 0.0017792 0)
(-0.000577234 0.00185463 0)
(-0.000690932 0.00189714 0)
(-0.000805222 0.00191137 0)
(-0.000919023 0.00190076 0)
(-0.00103183 0.00186773 0)
(-0.00114328 0.00181352 0)
(-0.0012534 0.00173885 0)
(-0.00136209 0.00164369 0)
(-0.00146936 0.00152764 0)
(-0.0015752 0.00138982 0)
(-0.00167955 0.0012295 0)
(-0.00178198 0.0010457 0)
(-0.00188187 0.000837558 0)
(-0.00197837 0.000604604 0)
(-0.00207012 0.00034678 0)
(-0.00215524 6.45572e-05 0)
(-0.0022311 -0.000240537 0)
(-0.00229447 -0.00056599 0)
(-0.0023414 -0.000907519 0)
(-0.00236677 -0.00125885 0)
(-0.00236489 -0.00161115 0)
(-0.00232958 -0.00195261 0)
(-0.00225436 -0.00226787 0)
(-0.00213364 -0.00253813 0)
(-0.00196364 -0.00274164 0)
(-0.0017441 -0.00285494 0)
(-0.00148005 -0.00285601 0)
(-0.00118288 -0.00272725 0)
(-0.000871132 -0.00246052 0)
(-0.00056958 -0.00206079 0)
(-0.000306645 -0.00154769 0)
(-0.000112385 -0.000953667 0)
(-8.10511e-06 -0.000319252 0)
(-2.43599e-06 0.000267798 0)
(-3.25203e-05 0.000716984 0)
(-8.6932e-05 0.00108303 0)
(-0.000161003 0.00137433 0)
(-0.000248772 0.00159948 0)
(-0.000345774 0.00176734 0)
(-0.000448354 0.00188642 0)
(-0.000553939 0.00196439 0)
(-0.000660561 0.00200768 0)
(-0.000766689 0.00202162 0)
(-0.000871586 0.00201002 0)
(-0.000974887 0.00197557 0)
(-0.00107648 0.00191999 0)
(-0.00117649 0.00184393 0)
(-0.00127516 0.00174752 0)
(-0.00137281 0.00163033 0)
(-0.0014697 0.00149149 0)
(-0.00156602 0.00133005 0)
(-0.00166187 0.00114488 0)
(-0.00175709 0.000934786 0)
(-0.00185109 0.000699011 0)
(-0.00194306 0.000436878 0)
(-0.00203151 0.000148413 0)
(-0.00211437 -0.000165677 0)
(-0.00218889 -0.000503674 0)
(-0.00225115 -0.000862309 0)
(-0.00229613 -0.00123617 0)
(-0.00231805 -0.00161741 0)
(-0.00230979 -0.0019946 0)
(-0.00226372 -0.00235258 0)
(-0.00217211 -0.00267141 0)
(-0.00202849 -0.0029268 0)
(-0.00182957 -0.00309117 0)
(-0.00157721 -0.00313616 0)
(-0.0012805 -0.0030366 0)
(-0.00095759 -0.00277662 0)
(-0.000635335 -0.0023553 0)
(-0.000346826 -0.00179011 0)
(-0.000129108 -0.00111584 0)
(-9.7059e-06 -0.000378677 0)
(-2.33249e-06 0.000283828 0)
(-3.17503e-05 0.000759568 0)
(-8.47123e-05 0.00114673 0)
(-0.000156563 0.00145382 0)
(-0.000240988 0.00168988 0)
(-0.000333311 0.00186464 0)
(-0.00042996 0.00198747 0)
(-0.000528101 0.00206675 0)
(-0.000625793 0.00210978 0)
(-0.000721874 0.00212239 0)
(-0.000815698 0.00210897 0)
(-0.000906965 0.00207247 0)
(-0.000995955 0.00201503 0)
(-0.00108303 0.00193747 0)
(-0.00116866 0.00183993 0)
(-0.00125347 0.00172207 0)
(-0.00133812 0.00158308 0)
(-0.00142311 0.00142169 0)
(-0.00150899 0.00123663 0)
(-0.00159588 0.00102673 0)
(-0.00168389 0.00079059 0)
(-0.00177251 0.000527217 0)
(-0.00186091 0.000235997 0)
(-0.00194762 -8.31749e-05 0)
(-0.00203033 -0.000429268 0)
(-0.00210564 -0.000800162 0)
(-0.00216904 -0.00119179 0)
(-0.00221448 -0.00159745 0)
(-0.00223479 -0.00200688 0)
(-0.00222121 -0.00240559 0)
(-0.00216409 -0.00277333 0)
(-0.00205446 -0.00308418 0)
(-0.00188531 -0.0033067 0)
(-0.00165441 -0.00340576 0)
(-0.00136754 -0.00334763 0)
(-0.00104088 -0.00310627 0)
(-0.000702245 -0.00267211 0)
(-0.000389505 -0.00205754 0)
(-0.000147591 -0.00129848 0)
(-1.15897e-05 -0.000446958 0)
(-2.28898e-06 0.000299503 0)
(-3.14e-05 0.00080124 0)
(-8.3483e-05 0.00120879 0)
(-0.000153527 0.00153047 0)
(-0.000234724 0.0017762 0)
(-0.000322101 0.00195625 0)
(-0.000411845 0.00208115 0)
(-0.000501218 0.00216017 0)
(-0.000588462 0.00220149 0)
(-0.000672399 0.0022114 0)
(-0.000752778 0.00219504 0)
(-0.000829587 0.00215583 0)
(-0.000903188 0.00209595 0)
(-0.000974391 0.00201654 0)
(-0.00104398 0.00191796 0)
(-0.00111285 0.00179977 0)
(-0.001182 0.0016612 0)
(-0.00125238 0.00150092 0)
(-0.0013247 0.00131759 0)
(-0.00139977 0.0011097 0)
(-0.00147802 0.000875654 0)
(-0.0015596 0.000614029 0)
(-0.00164425 0.000323615 0)
(-0.00173102 3.73622e-06 0)
(-0.00181838 -0.00034568 0)
(-0.00190368 -0.000723494 0)
(-0.0019829 -0.00112704 0)
(-0.00205051 -0.00155132 0)
(-0.00209937 -0.0019878 0)
(-0.00212009 -0.002423 0)
(-0.00210183 -0.00283792 0)
(-0.00203299 -0.00320557 0)
(-0.00190272 -0.00349155 0)
(-0.001704 -0.00365453 0)
(-0.00143782 -0.00365095 0)
(-0.00111689 -0.0034427 0)
(-0.00076838 -0.00300746 0)
(-0.000434048 -0.00234922 0)
(-0.000167658 -0.00150253 0)
(-1.37717e-05 -0.000525001 0)
(-2.35131e-06 0.000315176 0)
(-3.18796e-05 0.000842668 0)
(-8.41686e-05 0.00126984 0)
(-0.000153224 0.00160493 0)
(-0.000231608 0.00185835 0)
(-0.000313905 0.00204177 0)
(-0.000396075 0.00216658 0)
(-0.000475449 0.00224329 0)
(-0.000550463 0.00228086 0)
(-0.000620268 0.00228665 0)
(-0.000684758 0.00226597 0)
(-0.00074439 0.00222294 0)
(-0.000799935 0.00215988 0)
(-0.000852419 0.00207821 0)
(-0.000903022 0.0019784 0)
(-0.000952866 0.00186013 0)
(-0.00100334 0.00172253 0)
(-0.00105579 0.00156436 0)
(-0.00111127 0.00138415 0)
(-0.00117096 0.00118006 0)
(-0.0012359 0.000950467 0)
(-0.00130667 0.000693459 0)
(-0.00138352 0.000407493 0)
(-0.00146645 9.11716e-05 0)
(-0.00155447 -0.000256551 0)
(-0.00164577 -0.000635489 0)
(-0.00173733 -0.00104464 0)