/*--------------------------------*- C++ -*----------------------------------*\
  =========                 |
  \\      /  F ield         | OpenFOAM: The Open Source CFD Toolbox
   \\    /   O peration     | Website:  https://openfoam.org
    \\  /    A nd           | Version:  7
     \\/     M anipulation  |
\*---------------------------------------------------------------------------*/
FoamFile
{
    version     2.0;
    format      ascii;
    class       surfaceScalarField;
    location    "0";
    object      phi;
}
// * * * * * * * * * * * * * * * * * * * * * * * * * * * * * * * * * * * * * //

dimensions      [0 3 -1 0 0 0 0];

internalField   nonuniform List<scalar> 
1735
(
1.15584e-05
2.22094e-12
1.15584e-05
-2.39426e-11
1.1559e-05
-5.53832e-10
1.15655e-05
-6.49171e-09
1.16025e-05
-3.70697e-08
1.17243e-05
-1.21724e-07
1.20086e-05
-2.84331e-07
1.25911e-05
-5.8253e-07
1.39107e-05
-1.31954e-06
-5.03089e-06
1.89415e-05
1.49282e-05
2.45543e-12
1.49283e-05
-5.20244e-11
1.4929e-05
-1.271e-09
1.49374e-05
-1.48715e-08
1.49852e-05
-8.49227e-08
1.51423e-05
-2.78818e-07
1.5509e-05
-6.51027e-07
1.62582e-05
-1.33174e-06
1.79258e-05
-2.98709e-06
-1.00254e-05
2.29203e-05
1.92806e-05
2.76075e-12
1.92806e-05
-8.82478e-11
1.92815e-05
-2.19606e-09
1.92923e-05
-2.56799e-08
1.9354e-05
-1.46631e-07
1.95565e-05
-4.81265e-07
2.00281e-05
-1.1226e-06
2.09839e-05
-2.28755e-06
2.3021e-05
-5.02423e-06
-1.45513e-05
2.75469e-05
2.49018e-05
3.16037e-12
2.49019e-05
-1.34905e-10
2.4903e-05
-3.3874e-09
2.4917e-05
-3.95976e-08
2.49964e-05
-2.26053e-07
2.52566e-05
-7.41443e-07
2.58598e-05
-1.72587e-06
2.70616e-05
-3.48932e-06
2.94277e-05
-7.39028e-06
-1.81191e-05
3.29954e-05
3.21619e-05
3.6815e-12
3.2162e-05
-1.94831e-10
3.21635e-05
-4.91727e-09
3.21814e-05
-5.74652e-08
3.22832e-05
-3.2792e-07
3.2616e-05
-1.07417e-06
3.33805e-05
-2.49038e-06
3.48545e-05
-4.96334e-06
3.74066e-05
-9.94236e-06
-2.02994e-05
3.95868e-05
4.15387e-05
4.36792e-12
4.15388e-05
-2.71425e-10
4.15407e-05
-6.87183e-09
4.15636e-05
-8.02813e-08
4.16934e-05
-4.57769e-07
4.21152e-05
-1.49596e-06
4.30683e-05
-3.44346e-06
4.48043e-05
-6.69939e-06
4.72707e-05
-1.24088e-05
-2.08723e-05
4.78436e-05
5.36493e-05
5.28766e-12
5.36494e-05
-3.68474e-10
5.36519e-05
-9.34654e-09
5.36808e-05
-1.09142e-07
5.38445e-05
-6.21488e-07
5.4371e-05
-2.02252e-06
5.55264e-05
-4.5988e-06
5.74429e-05
-8.61589e-06
5.94432e-05
-1.44091e-05
-1.99335e-05
5.85045e-05
6.92907e-05
6.54915e-12
6.92909e-05
-4.89566e-10
6.9294e-05
-1.243e-08
6.93299e-05
-1.45044e-07
6.95323e-05
-8.23967e-07
7.01722e-05
-2.66238e-06
7.15078e-05
-5.93444e-06
7.34162e-05
-1.05243e-05
7.45565e-05
-1.55495e-05
-1.78712e-05
7.24942e-05
8.94924e-05
8.34333e-12
8.94926e-05
-6.36525e-10
8.94963e-05
-1.61626e-08
8.95397e-05
-1.88374e-07
8.97815e-05
-1.06584e-06
9.05227e-05
-3.40351e-06
9.19463e-05
-7.35807e-06
9.35433e-05
-1.21213e-05
9.35716e-05
-1.55778e-05
-1.51979e-05
9.08983e-05
0.000115584
1.1018e-11
0.000115584
-8.05898e-10
0.000115588
-2.0442e-08
0.000115638
-2.37788e-07
0.000115909
-1.33657e-06
0.000116694
-4.18851e-06
0.000118001
-8.66539e-06
0.00011893
-1.30508e-05
0.000117878
-1.45256e-05
-1.23416e-05
0.000115022
0.000346752
5.69575e-11
0.000346752
-1.17608e-09
0.00034676
-2.86315e-08
0.000346853
-3.30575e-07
0.000347322
-1.80507e-06
0.000348354
-5.22126e-06
0.000348857
-9.16768e-06
0.000346768
-1.09621e-05
0.000342078
-9.83592e-06
-7.36146e-06
0.000337098
0.000268477
3.88902e-11
0.000268477
-1.14893e-09
0.000268477
-2.84059e-08
0.000268472
-3.25735e-07
0.000268411
-1.74382e-06
0.000267989
-4.7996e-06
0.000266525
-7.70375e-06
0.000263836
-8.27227e-06
0.000260833
-6.83344e-06
-4.90589e-06
0.000258378
0.000207872
2.70466e-11
0.000207872
-9.7672e-10
0.000207868
-2.43297e-08
0.00020782
-2.77793e-07
0.000207545
-1.46906e-06
0.000206671
-3.92559e-06
0.000204958
-5.99039e-06
0.000202773
-6.08724e-06
0.000200784
-4.84407e-06
-3.41793e-06
0.000199296
0.000160948
1.89722e-11
0.000160948
-7.65631e-10
0.000160943
-1.91802e-08
0.000160883
-2.18419e-07
0.000160561
-1.14678e-06
0.000159648
-3.01249e-06
0.000158126
-4.46846e-06
0.000156448
-4.40961e-06
0.000155049
-3.44503e-06
-2.41088e-06
0.000154042
0.000124616
1.32259e-11
0.000124616
-5.65359e-10
0.000124611
-1.42539e-08
0.000124555
-1.62052e-07
0.000124255
-8.47369e-07
0.000123447
-2.2047e-06
0.000122198
-3.21933e-06
0.000120916
-3.12746e-06
0.000119891
-2.42033e-06
-1.68677e-06
0.000119167
9.64857e-05
8.99147e-12
9.64856e-05
-3.93832e-10
9.64813e-05
-1.00221e-08
9.64331e-05
-1.13809e-07
9.61795e-05
-5.93796e-07
9.55118e-05
-1.53691e-06
9.45177e-05
-2.22533e-06
9.35342e-05
-2.14394e-06
9.2765e-05
-1.65109e-06
-1.14823e-06
9.22264e-05
7.47054e-05
5.79615e-12
7.47053e-05
-2.54049e-10
7.47018e-05
-6.5698e-09
7.46626e-05
-7.45239e-08
7.44571e-05
-3.88403e-07
7.39228e-05
-1.00258e-06
7.31429e-05
-1.44536e-06
7.23855e-05
-1.38662e-06
7.17997e-05
-1.06523e-06
-7.40011e-07
7.13915e-05
5.78417e-05
3.35065e-12
5.78416e-05
-1.43053e-10
5.78388e-05
-3.82792e-09
5.78077e-05
-4.33498e-08
5.76451e-05
-2.25838e-07
5.72247e-05
-5.822e-07
5.6617e-05
-8.376e-07
5.60323e-05
-8.01955e-07
5.55824e-05
-6.15368e-07
-4.2728e-07
5.52697e-05
4.47847e-05
1.46255e-12
4.47847e-05
-5.61311e-11
4.47825e-05
-1.68098e-09
4.47581e-05
-1.89488e-08
4.4631e-05
-9.87398e-08
4.43032e-05
-2.54402e-07
4.38313e-05
-3.65711e-07
4.33792e-05
-3.49873e-07
4.30322e-05
-2.68348e-07
-1.86291e-07
4.27912e-05
3.46752e-05
3.46751e-05
3.46734e-05
3.46545e-05
3.45558e-05
3.43014e-05
3.39356e-05
3.35858e-05
3.33174e-05
3.31311e-05
0.000333087
-5.3047e-06
9.31589e-06
0.000328387
-6.06077e-06
1.07607e-05
0.000323398
-6.73635e-06
1.17252e-05
0.000318646
-7.22997e-06
1.19822e-05
0.000314594
-7.45233e-06
1.1504e-05
0.000311509
-7.3531e-06
1.0438e-05
0.000309428
-6.93502e-06
9.01614e-06
0.000308214
-6.25053e-06
7.46526e-06
0.000307642
-5.38499e-06
5.95665e-06
0.000307483
-4.43513e-06
4.59448e-06
0.000307545
-3.49032e-06
3.42779e-06
0.000307697
-2.62081e-06
2.46931e-06
0.000307858
-1.8729e-06
1.71108e-06
0.000307993
-1.26918e-06
1.13443e-06
0.00030809
-8.11814e-07
7.15052e-07
0.000308152
-4.87482e-07
4.25613e-07
0.000308187
-2.72926e-07
2.37377e-07
0.000308206
-1.40606e-07
1.21644e-07
0.000308213
-6.47366e-08
5.7613e-08
-1.72005e-08
1.26918e-08
0.000256554
-3.48112e-06
0.000254451
-3.95743e-06
0.000252132
-4.41789e-06
0.000249716
-4.81381e-06
0.000247353
-5.08914e-06
0.000245192
-5.19224e-06
0.000243347
-5.08968e-06
0.000241873
-4.7768e-06
0.000240769
-4.28075e-06
0.000239988
-3.65498e-06
0.000239465
-2.9672e-06
0.00023913
-2.28538e-06
0.000238923
-1.6657e-06
0.000238799
-1.14523e-06
0.000238727
-7.39926e-07
0.000238686
-4.47177e-07
0.000238665
-2.51279e-07
0.000238654
-1.29747e-07
0.000238649
-5.94948e-08
-1.63135e-08
0.000198224
-2.40958e-06
0.000196999
-2.73278e-06
0.000195636
-3.05474e-06
0.00019417
-3.34804e-06
0.000192659
-3.57767e-06
0.000191173
-3.70599e-06
0.000189784
-3.70106e-06
0.000188553
-3.54586e-06
0.000187518
-3.24514e-06
0.000186689
-2.82669e-06
0.000186058
-2.33605e-06
0.000185599
-1.82641e-06
0.000185281
-1.34708e-06
0.00018507
-9.34427e-07
0.000184937
-6.07503e-07
0.000184859
-3.68644e-07
0.000184815
-2.07636e-07
0.000184793
-1.07368e-07
0.000184782
-4.9126e-08
-1.36996e-08
0.000153327
-1.69435e-06
0.000152513
-1.91931e-06
0.000151605
-2.14648e-06
0.000150616
-2.35879e-06
0.000149572
-2.53338e-06
0.00014851
-2.64393e-06
0.000147474
-2.66561e-06
0.00014651
-2.58171e-06
0.000145655
-2.38982e-06
0.000144933
-2.10487e-06
0.000144354
-1.75715e-06
0.000143913
-1.38567e-06
0.000143595
-1.02909e-06
0.000143378
-7.17571e-07
0.000143239
-4.68243e-07
0.000143155
-2.8483e-07
0.000143108
-1.60659e-07
0.000143084
-8.3146e-08
0.000143073
-3.80135e-08
-1.06779e-08
0.000118657
-1.18359e-06
0.000118077
-1.33989e-06
0.00011743
-1.4988e-06
0.00011672
-1.64918e-06
0.000115962
-1.77575e-06
0.000115179
-1.86035e-06
0.000114398
-1.88495e-06
0.000113653
-1.83622e-06
0.000112973
-1.71026e-06
0.000112384
-1.51553e-06
0.000111899
-1.27227e-06
0.000111521
-1.00815e-06
0.000111244
-7.51632e-07
0.000111052
-5.25654e-07
0.000110927
-3.43731e-07
0.000110852
-2.0938e-07
0.000110809
-1.182e-07
0.000110788
-6.1201e-08
0.000110777
-2.79713e-08
-7.88424e-09
9.18479e-05
-8.05042e-07
9.1419e-05
-9.11062e-07
9.09394e-05
-1.01921e-06
9.04125e-05
-1.1222e-06
8.98466e-05
-1.2099e-06
8.92563e-05
-1.27005e-06
8.86615e-05
-1.29019e-06
8.8086e-05
-1.26068e-06
8.75538e-05
-1.17806e-06
8.70856e-05
-1.04734e-06
8.66952e-05
-8.81891e-07
8.63877e-05
-7.00638e-07
8.61595e-05
-5.23473e-07
8.60006e-05
-3.66681e-07
8.58969e-05
-2.40052e-07
8.58339e-05
-1.46337e-07
8.57983e-05
-8.26487e-08
8.57799e-05
-4.28041e-08
8.57715e-05
-1.95602e-08
-5.52274e-09
7.1105e-05
-5.18624e-07
7.07808e-05
-5.86827e-07
7.04181e-05
-6.56515e-07
7.0019e-05
-7.23089e-07
6.95892e-05
-7.80109e-07
6.91389e-05
-8.1971e-07
6.86825e-05
-8.33801e-07
6.82378e-05
-8.15995e-07
6.78235e-05
-7.63801e-07
6.74564e-05
-6.80188e-07
6.71481e-05
-5.73629e-07
6.69038e-05
-4.56347e-07
6.67217e-05
-3.41328e-07
6.65943e-05
-2.39292e-07
6.6511e-05
-1.56748e-07
6.64602e-05
-9.55927e-08
6.64316e-05
-5.4002e-08
6.64168e-05
-2.79712e-08
6.641e-05
-1.27808e-08
-3.61146e-09
5.50505e-05
-2.99395e-07
5.48024e-05
-3.38742e-07
5.45248e-05
-3.78976e-07
5.42192e-05
-4.1747e-07
5.38896e-05
-4.50526e-07
5.35435e-05
-4.73617e-07
5.31918e-05
-4.82056e-07
5.28479e-05
-4.72107e-07
5.25264e-05
-4.4226e-07
5.22403e-05
-3.94157e-07
5.19993e-05
-3.32653e-07
5.18078e-05
-2.64809e-07
5.16646e-05
-1.98169e-07
5.15643e-05
-1.38984e-07
5.14987e-05
-9.10671e-08
5.14586e-05
-5.55475e-08
5.1436e-05
-3.13831e-08
5.14243e-05
-1.62559e-08
5.1419e-05
-7.42699e-09
-2.09921e-09
4.26223e-05
-1.30524e-07
4.24313e-05
-1.47673e-07
4.22175e-05
-1.65215e-07
4.1982e-05
-1.82006e-07
4.1728e-05
-1.96442e-07
4.14609e-05
-2.06548e-07
4.11891e-05
-2.10279e-07
4.0923e-05
-2.05998e-07
4.06738e-05
-1.93035e-07
4.04517e-05
-1.72093e-07
4.02643e-05
-1.45282e-07
4.01152e-05
-1.15681e-07
4.00036e-05
-8.65873e-08
3.99254e-05
-6.07368e-08
3.98741e-05
-3.98011e-08
3.98428e-05
-2.42789e-08
3.98252e-05
-1.37173e-08
3.9816e-05
-7.10477e-09
3.98119e-05
-3.24518e-09
-9.17046e-10
3.30006e-05
3.28529e-05
3.26877e-05
3.25057e-05
3.23093e-05
3.21027e-05
3.18924e-05
3.16864e-05
3.14934e-05
3.13213e-05
3.1176e-05
3.10603e-05
3.09738e-05
3.0913e-05
3.08732e-05
3.08489e-05
3.08352e-05
3.08281e-05
3.08249e-05
8.46918e-06
-7.49845e-05
8.54568e-05
8.16943e-06
-4.13171e-05
4.16169e-05
8.46578e-06
-2.63152e-05
2.60188e-05
8.83557e-06
-1.76897e-05
1.73199e-05
9.1757e-06
-1.21739e-05
1.18337e-05
9.45791e-06
-8.51736e-06
8.23515e-06
9.68059e-06
-6.04181e-06
5.81913e-06
9.85133e-06
-4.32841e-06
4.15766e-06
9.97962e-06
-3.11307e-06
2.98479e-06
1.00742e-05
-2.2311e-06
2.13654e-06
1.01424e-05
-1.58059e-06
1.51236e-06
1.01904e-05
-1.09788e-06
1.04992e-06
1.0223e-05
-7.41613e-07
7.08951e-07
1.02444e-05
-4.83128e-07
4.61737e-07
1.02578e-05
-3.01047e-07
2.87681e-07
1.02657e-05
-1.77801e-07
1.69917e-07
1.02699e-05
-9.97217e-08
9.54548e-08
1.02723e-05
-5.01434e-08
4.77522e-08
1.0273e-05
-2.66673e-08
2.59961e-08
-2.89142e-09
2.16961e-09
1.18935e-05
-6.39577e-05
1.09097e-05
-4.03334e-05
1.11039e-05
-2.65093e-05
1.15e-05
-1.80858e-05
1.18985e-05
-1.25724e-05
1.22415e-05
-8.86041e-06
1.25176e-05
-6.31796e-06
1.27319e-05
-4.54273e-06
1.2894e-05
-3.27532e-06
1.30142e-05
-2.3513e-06
1.31011e-05
-1.66759e-06
1.31624e-05
-1.15924e-06
1.32041e-05
-7.83462e-07
1.32315e-05
-5.10624e-07
1.32486e-05
-3.18449e-07
1.32587e-05
-1.89105e-07
1.32642e-05
-1.07474e-07
1.32672e-05
-5.12866e-08
1.32681e-05
-3.40479e-08
5.05596e-09
1.65284e-05
-5.29392e-05
1.46494e-05
-3.84544e-05
1.46203e-05
-2.64802e-05
1.50013e-05
-1.84668e-05
1.54485e-05
-1.30195e-05
1.58554e-05
-9.26736e-06
1.61925e-05
-6.65499e-06
1.64584e-05
-4.80868e-06
1.66618e-05
-3.47873e-06
1.68135e-05
-2.50295e-06
1.69237e-05
-1.77782e-06
1.70016e-05
-1.23712e-06
1.70548e-05
-8.36665e-07
1.70897e-05
-5.45546e-07
1.71115e-05
-3.40302e-07
1.71244e-05
-2.0201e-07
1.71314e-05
-1.14464e-07
1.71353e-05
-5.51959e-08
1.71364e-05
-3.51629e-08
3.90738e-09
2.26409e-05
-4.25847e-05
1.97487e-05
-3.55622e-05
1.93316e-05
-2.60632e-05
1.96217e-05
-1.87569e-05
2.009e-05
-1.34878e-05
2.05555e-05
-9.73286e-06
2.09575e-05
-7.05703e-06
2.12824e-05
-5.13358e-06
2.15346e-05
-3.73088e-06
2.17243e-05
-2.69268e-06
2.1863e-05
-1.91656e-06
2.19614e-05
-1.33551e-06
2.20288e-05
-9.04069e-07
2.20731e-05
-5.89866e-07
2.21009e-05
-3.68068e-07
2.21173e-05
-2.18417e-07
2.21262e-05
-1.23368e-07
2.21311e-05
-6.01469e-08
2.21326e-05
-3.66164e-08
2.48683e-09
3.04929e-05
-3.34907e-05
2.66515e-05
-3.17208e-05
2.56653e-05
-2.5077e-05
2.57464e-05
-1.8838e-05
2.61791e-05
-1.39205e-05
2.66817e-05
-1.02354e-05
2.71448e-05
-7.5202e-06
2.75325e-05
-5.52122e-06
2.78397e-05
-4.03808e-06
2.80739e-05
-2.9269e-06
2.82466e-05
-2.08929e-06
2.83698e-05
-1.45871e-06
2.84545e-05
-9.88773e-07
2.85103e-05
-6.45701e-07
2.85454e-05
-4.03104e-07
2.85661e-05
-2.39141e-07
2.85774e-05
-1.3464e-07
2.85835e-05
-6.6372e-08
2.85855e-05
-3.85067e-08
7.52032e-10
4.03687e-05
-2.60158e-05
3.58689e-05
-2.72209e-05
3.41784e-05
-2.33865e-05
3.38955e-05
-1.85551e-05
3.41969e-05
-1.42219e-05
3.46886e-05
-1.07272e-05
3.51936e-05
-8.02519e-06
3.56396e-05
-5.9672e-06
3.60042e-05
-4.40263e-06
3.62875e-05
-3.2102e-06
3.6499e-05
-2.30079e-06
3.6651e-05
-1.61078e-06
3.67562e-05
-1.09391e-06
3.68257e-05
-7.15258e-07
3.68695e-05
-4.46853e-07
3.68954e-05
-2.65054e-07
3.69095e-05
-1.48775e-07
3.69172e-05
-7.41173e-08
3.69197e-05
-4.09493e-08
-1.33195e-09
5.26638e-05
-2.01751e-05
4.7961e-05
-2.25181e-05
4.55604e-05
-2.09859e-05
4.47567e-05
-1.77514e-05
4.47909e-05
-1.42561e-05
4.51866e-05
-1.1123e-05
4.56883e-05
-8.52686e-06
4.61723e-05
-6.45116e-06
4.65872e-05
-4.81759e-06
4.69191e-05
-3.54208e-06
4.71714e-05
-2.55314e-06
4.73551e-05
-1.79443e-06
4.74831e-05
-1.2219e-06
4.75682e-05
-8.00393e-07
4.76219e-05
-5.00587e-07
4.76538e-05
-2.9695e-07
4.76713e-05
-1.66232e-07
4.76807e-05
-8.36029e-08
4.76839e-05
-4.40658e-08
-3.78166e-09
6.80133e-05
-1.56942e-05
6.35592e-05
-1.8064e-05
6.06197e-05
-1.80464e-05
5.92039e-05
-1.63357e-05
5.88179e-05
-1.38701e-05
5.89924e-05
-1.12974e-05
5.94089e-05
-8.94337e-06
5.98837e-05
-6.92591e-06
6.03243e-05
-5.25827e-06
6.06931e-05
-3.9109e-06
6.09816e-05
-2.84165e-06
6.11956e-05
-2.00836e-06
6.13465e-05
-1.37286e-06
6.14478e-05
-9.01646e-07
6.1512e-05
-5.6484e-07
6.15503e-05
-3.35219e-07
6.15713e-05
-1.87264e-07
6.15826e-05
-9.49326e-08
6.15865e-05
-4.79475e-08
-6.57768e-09
8.73929e-05
-1.21888e-05
8.34621e-05
-1.41333e-05
8.02808e-05
-1.48651e-05
7.82957e-05
-1.43506e-05
7.73771e-05
-1.29515e-05
7.7185e-05
-1.11053e-05
7.73949e-05
-9.15328e-06
7.77751e-05
-7.30611e-06
7.81871e-05
-5.67019e-06
7.85602e-05
-4.28408e-06
7.88664e-05
-3.1478e-06
7.91004e-05
-2.24243e-06
7.9269e-05
-1.54145e-06
7.93836e-05
-1.01626e-06
7.9457e-05
-6.3821e-07
7.95009e-05
-3.79155e-07
7.95252e-05
-2.11535e-07
7.95381e-05
-1.07906e-07
7.95428e-05
-5.25716e-08
-9.63702e-09
0.000112149
0.000108776
0.000105637
0.000103268
0.000101821
0.000101153
0.000101016
0.000101175
0.000101462
0.000101772
0.000102052
0.000102279
0.000102449
0.000102567
0.000102644
0.00010269
0.000102716
0.00010273
0.000102735
7.3858e-07
-7.3858e-07
1.34925e-06
-6.10673e-07
1.77372e-06
-4.24468e-07
2.04972e-06
-2.76003e-07
2.22825e-06
-1.78529e-07
2.34623e-06
-1.17974e-07
2.42634e-06
-8.01099e-08
2.48199e-06
-5.56504e-08
2.52118e-06
-3.91983e-08
2.54889e-06
-2.77062e-08
2.56834e-06
-1.94495e-08
2.58177e-06
-1.34276e-08
2.5908e-06
-9.03372e-09
2.59667e-06
-5.86895e-09
2.60032e-06
-3.64735e-09
2.60246e-06
-2.14387e-09
2.60363e-06
-1.16563e-09
2.60426e-06
-6.34922e-10
2.60446e-06
-2.02093e-10
-1.71304e-10
8.96479e-07
-1.63506e-06
1.63747e-06
-1.35166e-06
2.15241e-06
-9.39417e-07
2.48724e-06
-6.10828e-07
2.70382e-06
-3.95114e-07
2.84695e-06
-2.61103e-07
2.94415e-06
-1.77305e-07
3.01167e-06
-1.23172e-07
3.05923e-06
-8.67591e-08
3.09284e-06
-6.13237e-08
3.11644e-06
-4.30489e-08
3.13274e-06
-2.97203e-08
3.1437e-06
-1.99951e-08
3.15082e-06
-1.29905e-08
3.15524e-06
-8.07392e-09
3.15784e-06
-4.74606e-09
3.15926e-06
-2.5799e-09
3.16003e-06
-1.40684e-09
3.16027e-06
-4.45508e-10
-3.79172e-10
1.08871e-06
-2.72377e-06
1.9878e-06
-2.25075e-06
2.6123e-06
-1.56392e-06
3.01832e-06
-1.01685e-06
3.28098e-06
-6.57776e-07
3.45458e-06
-4.34705e-07
3.57249e-06
-2.95208e-07
3.6544e-06
-2.05085e-07
3.7121e-06
-1.4446e-07
3.75289e-06
-1.0211e-07
3.78152e-06
-7.16817e-08
3.80129e-06
-4.94883e-08
3.81459e-06
-3.32948e-08
3.82323e-06
-2.16312e-08
3.8286e-06
-1.34448e-08
3.83175e-06
-7.90338e-09
3.83347e-06
-4.29588e-09
3.8344e-06
-2.34346e-09
3.8347e-06
-7.4082e-10
-6.31426e-10
1.3233e-06
-4.04707e-06
2.41418e-06
-3.34163e-06
3.17112e-06
-2.32087e-06
3.66316e-06
-1.50888e-06
3.98152e-06
-9.76143e-07
4.192e-06
-6.45182e-07
4.33498e-06
-4.38186e-07
4.43433e-06
-3.04436e-07
4.50432e-06
-2.14453e-07
4.5538e-06
-1.51589e-07
4.58853e-06
-1.06418e-07
4.61251e-06
-7.34708e-08
4.62865e-06
-4.94302e-08
4.63913e-06
-3.21144e-08
4.64565e-06
-1.99611e-08
4.64947e-06
-1.1734e-08
4.65156e-06
-6.37779e-09
4.65269e-06
-3.47987e-09
4.65305e-06
-1.09903e-09
-9.37571e-10
1.61063e-06
-5.65769e-06
2.93413e-06
-4.66513e-06
3.85079e-06
-3.23754e-06
4.44644e-06
-2.10453e-06
4.83198e-06
-1.36169e-06
5.087e-06
-9.00194e-07
5.2603e-06
-6.11489e-07
5.38076e-06
-4.24894e-07
5.46563e-06
-2.99333e-07
5.52564e-06
-2.11599e-07
5.56778e-06
-1.48552e-07
5.59687e-06
-1.02562e-07
5.61644e-06
-6.90038e-08
5.62916e-06
-4.48318e-08
5.63706e-06
-2.78661e-08
5.64171e-06
-1.63812e-08
5.64423e-06
-8.90339e-09
5.6456e-06
-4.85864e-09
5.64604e-06
-1.53341e-09
-1.30918e-09
1.96453e-06
-7.62222e-06
3.57006e-06
-6.27067e-06
4.6786e-06
-4.34607e-06
5.3985e-06
-2.82444e-06
5.86476e-06
-1.82794e-06
6.17341e-06
-1.20885e-06
6.38331e-06
-8.2139e-07
6.52928e-06
-5.70864e-07
6.63217e-06
-4.02224e-07
6.70493e-06
-2.8436e-07
6.75602e-06
-1.99645e-07
6.7913e-06
-1.37844e-07
6.81504e-06
-9.27436e-08
6.83047e-06
-6.02567e-08
6.84005e-06
-3.74545e-08
6.84569e-06
-2.2018e-08
6.84875e-06
-1.19667e-08
6.85042e-06
-6.53129e-09
6.85095e-06
-2.05994e-09
-1.76035e-09
2.4041e-06
-1.00263e-05
4.35132e-06
-8.21789e-06
5.68894e-06
-5.68368e-06
6.55683e-06
-3.69233e-06
7.11949e-06
-2.39061e-06
7.49247e-06
-1.58182e-06
7.7464e-06
-1.07533e-06
7.92314e-06
-7.47601e-07
8.04778e-06
-5.26871e-07
8.13596e-06
-3.72538e-07
8.19789e-06
-2.6158e-07
8.24067e-06
-1.80618e-07
8.26945e-06
-1.21528e-07
8.28815e-06
-7.89606e-08
8.29978e-06
-4.90817e-08
8.30661e-06
-2.88536e-08
8.31032e-06
-1.56813e-08
8.31235e-06
-8.56019e-09
8.31299e-06
-2.69774e-09
-2.30834e-09
2.95694e-06
-1.29833e-05
5.31746e-06
-1.05784e-05
6.92592e-06
-7.29214e-06
7.96812e-06
-4.73454e-06
8.6449e-06
-3.06739e-06
9.09451e-06
-2.03143e-06
9.40117e-06
-1.38199e-06
9.61488e-06
-9.61315e-07
9.76574e-06
-6.77731e-07
9.87252e-06
-4.79321e-07
9.94755e-06
-3.36611e-07
9.99938e-06
-2.3245e-07
1.00343e-05
-1.56414e-07
1.00569e-05
-1.01632e-07
1.0071e-05
-6.3176e-08
1.00793e-05
-3.71401e-08
1.00838e-05
-2.0184e-08
1.00863e-05
-1.10207e-08
1.0087e-05
-3.46952e-09
-2.97429e-09
3.66508e-06
-1.66483e-05
6.52375e-06
-1.34371e-05
8.44728e-06
-9.21568e-06
9.69124e-06
-5.9785e-06
1.05012e-05
-3.87736e-06
1.10412e-05
-2.57139e-06
1.14105e-05
-1.75133e-06
1.16684e-05
-1.21924e-06
1.18508e-05
-8.60049e-07
1.19799e-05
-6.0849e-07
1.20707e-05
-4.27425e-07
1.21335e-05
-2.95209e-07
1.21758e-05
-1.98666e-07
1.22032e-05
-1.29094e-07
1.22203e-05
-8.02513e-08
1.22303e-05
-4.718e-08
1.22358e-05
-2.56385e-08
1.22387e-05
-1.40038e-08
1.22397e-05
-4.40197e-09
-3.78428e-09
4.59651e-06
-2.12449e-05
8.05081e-06
-1.68914e-05
1.03307e-05
-1.14956e-05
1.18015e-05
-7.4493e-06
1.27635e-05
-4.83935e-06
1.34083e-05
-3.21621e-06
1.38514e-05
-2.19437e-06
1.41617e-05
-1.5296e-06
1.43816e-05
-1.07991e-06
1.45376e-05
-7.64472e-07
1.46473e-05
-5.37192e-07
1.47232e-05
-3.71113e-07
1.47743e-05
-2.49787e-07
1.48076e-05
-1.62331e-07
1.48282e-05
-1.0092e-07
1.48404e-05
-5.93345e-08
1.4847e-05
-3.22402e-08
1.48506e-05
-1.76188e-08
1.48517e-05
-5.52586e-09
-4.77074e-09
5.86884e-06
-2.71137e-05
1.00215e-05
-2.10441e-05
1.26838e-05
-1.41579e-05
1.43971e-05
-9.16254e-06
1.55262e-05
-5.96852e-06
1.62897e-05
-3.97969e-06
1.68179e-05
-2.72256e-06
1.71897e-05
-1.90143e-06
1.7454e-05
-1.34416e-06
1.76419e-05
-9.52355e-07
1.77743e-05
-6.69595e-07
1.78659e-05
-4.62753e-07
1.79276e-05
-3.11545e-07
1.79678e-05
-2.025e-07
1.79928e-05
-1.25907e-07
1.80075e-05
-7.4031e-08
1.80155e-05
-4.02196e-08
1.80198e-05
-2.19965e-08
1.80212e-05
-6.87557e-09
-5.97445e-09
7.70121e-06
-3.48149e-05
1.26319e-05
-2.59748e-05
1.56603e-05
-1.71863e-05
1.76085e-05
-1.11107e-05
1.891e-05
-7.27002e-06
1.98023e-05
-4.872e-06
2.04262e-05
-3.34651e-06
2.08687e-05
-2.34393e-06
2.11848e-05
-1.66021e-06
2.14102e-05
-1.1778e-06
2.15694e-05
-8.28807e-07
2.16798e-05
-5.73104e-07
2.17542e-05
-3.85983e-07
2.18026e-05
-2.50946e-07
2.18328e-05
-1.56055e-07
2.18505e-05
-9.17685e-08
2.18601e-05
-4.98446e-08
2.18654e-05
-2.72925e-08
2.1867e-05
-8.48745e-09
-7.44751e-09
1.05382e-05
-4.53531e-05
1.62065e-05
-3.16432e-05
1.94851e-05
-2.04649e-05
2.16128e-05
-1.32383e-05
2.30706e-05
-8.72788e-06
2.40931e-05
-5.89443e-06
2.482e-05
-4.07341e-06
2.53414e-05
-2.86534e-06
2.57166e-05
-2.03544e-06
2.59856e-05
-1.44678e-06
2.61761e-05
-1.01937e-06
2.63085e-05
-7.05466e-07
2.63979e-05
-4.75396e-07
2.64561e-05
-3.09193e-07
2.64924e-05
-1.92326e-07
2.65137e-05
-1.13118e-07
2.65253e-05
-6.1419e-08
2.65317e-05
-3.36898e-08
2.65336e-05
-1.03958e-08
-9.25798e-09
1.53758e-05
-6.07288e-05
2.12931e-05
-3.75605e-05
2.44891e-05
-2.36609e-05
2.6653e-05
-1.54022e-05
2.82127e-05
-1.02876e-05
2.93491e-05
-7.0308e-06
3.01784e-05
-4.9027e-06
3.07837e-05
-3.47062e-06
3.12242e-05
-2.47601e-06
3.15424e-05
-1.76494e-06
3.17689e-05
-1.24589e-06
3.19267e-05
-8.633e-07
3.20336e-05
-5.82243e-07
3.21033e-05
-3.78898e-07
3.21467e-05
-2.35772e-07
3.21723e-05
-1.38708e-07
3.21861e-05
-7.5273e-08
3.21938e-05
-4.14007e-08
3.21961e-05
-1.26245e-08
-1.14974e-08
2.4728e-05
2.87844e-05
3.11423e-05
3.306e-05
3.4606e-05
3.58104e-05
3.67268e-05
3.74138e-05
3.79225e-05
3.8294e-05
3.85605e-05
3.8747e-05
3.88737e-05
3.89565e-05
3.90082e-05
3.90387e-05
3.90552e-05
3.90644e-05
3.9067e-05
)
;

boundaryField
{
    inlet
    {
        type            calculated;
        value           nonuniform List<scalar> 
20
(
-1.15584e-05
-1.49282e-05
-1.92806e-05
-2.49018e-05
-3.21619e-05
-4.15387e-05
-5.36493e-05
-6.92908e-05
-8.94925e-05
-0.000115584
-0.000346752
-0.000268477
-0.000207872
-0.000160948
-0.000124616
-9.64858e-05
-7.47054e-05
-5.78417e-05
-4.47847e-05
-3.46752e-05
)
;
    }
    outlet
    {
        type            calculated;
        value           nonuniform List<scalar> 
35
(
2.60463e-06
3.16048e-06
3.83495e-06
4.65335e-06
5.64641e-06
6.8514e-06
8.31353e-06
1.00877e-05
1.22405e-05
1.48527e-05
1.80224e-05
2.18685e-05
2.65354e-05
3.21983e-05
3.90697e-05
1.02737e-05
1.3269e-05
1.71376e-05
2.2134e-05
2.85872e-05
3.69218e-05
4.76863e-05
6.15893e-05
7.95458e-05
0.000102738
0.000308218
0.000238648
0.00018478
0.00014307
0.000110775
8.57692e-05
6.64081e-05
5.14174e-05
3.98107e-05
3.0824e-05
)
;
    }
    frontAndBack
    {
        type            empty;
        value           nonuniform 0();
    }
    noslipwall
    {
        type            calculated;
        value           uniform 0;
    }
}


// ************************************************************************* //
