/*--------------------------------*- C++ -*----------------------------------*\
  =========                 |
  \\      /  F ield         | OpenFOAM: The Open Source CFD Toolbox
   \\    /   O peration     | Website:  https://openfoam.org
    \\  /    A nd           | Version:  7
     \\/     M anipulation  |
\*---------------------------------------------------------------------------*/
FoamFile
{
    version     2.0;
    format      ascii;
    class       surfaceScalarField;
    location    "0";
    object      phi2;
}
// * * * * * * * * * * * * * * * * * * * * * * * * * * * * * * * * * * * * * //

dimensions      [0 3 -1 0 0 0 0];

internalField   nonuniform List<scalar> 
1735
(
1.32348e-05
2.54431e-12
1.32349e-05
-2.74163e-11
1.32355e-05
-6.34162e-10
1.32429e-05
-7.43328e-09
1.32854e-05
-4.24464e-08
1.34248e-05
-1.39379e-07
1.37503e-05
-3.25571e-07
1.44174e-05
-6.67021e-07
1.59283e-05
-1.51093e-06
-5.76058e-06
2.16889e-05
1.70935e-05
2.81509e-12
1.70935e-05
-5.9569e-11
1.70943e-05
-1.45535e-09
1.71039e-05
-1.70285e-08
1.71587e-05
-9.724e-08
1.73386e-05
-3.19259e-07
1.77585e-05
-7.45453e-07
1.86163e-05
-1.5249e-06
2.05258e-05
-3.42034e-06
-1.14795e-05
2.62447e-05
2.20771e-05
3.16137e-12
2.20771e-05
-1.01047e-10
2.20782e-05
-2.51459e-09
2.20905e-05
-2.94046e-08
2.21612e-05
-1.67899e-07
2.2393e-05
-5.51069e-07
2.2933e-05
-1.28543e-06
2.40274e-05
-2.61935e-06
2.636e-05
-5.75296e-06
-1.66619e-05
3.15424e-05
2.85136e-05
3.62048e-12
2.85137e-05
-1.5447e-10
2.8515e-05
-3.87872e-09
2.8531e-05
-4.53409e-08
2.86219e-05
-2.58841e-07
2.89198e-05
-8.48983e-07
2.96106e-05
-1.9762e-06
3.09867e-05
-3.99542e-06
3.36959e-05
-8.46219e-06
-2.07471e-05
3.77811e-05
3.68268e-05
4.21441e-12
3.68268e-05
-2.23088e-10
3.68286e-05
-5.63048e-09
3.68491e-05
-6.58001e-08
3.69657e-05
-3.75483e-07
3.73467e-05
-1.22997e-06
3.82221e-05
-2.85159e-06
3.99099e-05
-5.68324e-06
4.28321e-05
-1.13844e-05
-2.32436e-05
4.53286e-05
4.75636e-05
5.00118e-12
4.75637e-05
-3.10791e-10
4.75659e-05
-7.86854e-09
4.75921e-05
-9.19255e-08
4.77407e-05
-5.24165e-07
4.82237e-05
-1.71294e-06
4.9315e-05
-3.94291e-06
5.13029e-05
-7.67108e-06
5.4127e-05
-1.42086e-05
-2.38996e-05
5.4783e-05
6.14307e-05
6.05459e-12
6.14309e-05
-4.21917e-10
6.14337e-05
-1.07022e-08
6.14668e-05
-1.24973e-07
6.16542e-05
-7.1163e-07
6.22571e-05
-2.31587e-06
6.358e-05
-5.26582e-06
6.57745e-05
-9.86556e-06
6.8065e-05
-1.64991e-05
-2.28247e-05
6.69901e-05
7.93408e-05
7.49908e-12
7.9341e-05
-5.60572e-10
7.93445e-05
-1.42329e-08
7.93857e-05
-1.66081e-07
7.96175e-05
-9.43477e-07
8.03501e-05
-3.04853e-06
8.18795e-05
-6.79518e-06
8.40647e-05
-1.20507e-05
8.53704e-05
-1.78048e-05
-2.04633e-05
8.30089e-05
0.000102473
9.55414e-12
0.000102473
-7.28847e-10
0.000102477
-1.85069e-08
0.000102527
-2.15696e-07
0.000102804
-1.22043e-06
0.000103652
-3.89716e-06
0.000105282
-8.4253e-06
0.000107111
-1.38794e-05
0.000107143
-1.78372e-05
-1.74022e-05
0.000104082
0.000132348
1.26164e-11
0.000132349
-9.22785e-10
0.000132354
-2.34069e-08
0.00013241
-2.72277e-07
0.00013272
-1.53043e-06
0.000133619
-4.79602e-06
0.000135116
-9.92223e-06
0.00013618
-1.49437e-05
0.000134976
-1.66324e-05
-1.41316e-05
0.000131705
0.000397045
6.52197e-11
0.000397046
-1.34667e-09
0.000397055
-3.27842e-08
0.000397162
-3.78522e-07
0.000397698
-2.06688e-06
0.000398881
-5.97856e-06
0.000399456
-1.04974e-05
0.000397064
-1.25521e-05
0.000391694
-1.12626e-05
-8.42918e-06
0.000385992
0.000307418
4.45316e-11
0.000307418
-1.31557e-09
0.000307418
-3.2526e-08
0.000307412
-3.7298e-07
0.000307342
-1.99674e-06
0.000306859
-5.49574e-06
0.000305183
-8.82112e-06
0.000302103
-9.47209e-06
0.000298665
-7.82458e-06
-5.61745e-06
0.000295853
0.000238023
3.09705e-11
0.000238022
-1.11838e-09
0.000238018
-2.78586e-08
0.000237963
-3.18085e-07
0.000237648
-1.68213e-06
0.000236647
-4.49496e-06
0.000234686
-6.85925e-06
0.000232184
-6.97014e-06
0.000229906
-5.54667e-06
-3.91368e-06
0.000228202
0.000184292
2.17255e-11
0.000184292
-8.76679e-10
0.000184286
-2.19621e-08
0.000184218
-2.50099e-07
0.000183849
-1.31311e-06
0.000182804
-3.44943e-06
0.000181061
-5.11657e-06
0.00017914
-5.04919e-06
0.000177538
-3.94471e-06
-2.76056e-06
0.000176385
0.000142691
1.51457e-11
0.000142691
-6.4736e-10
0.000142685
-1.63213e-08
0.00014262
-1.85557e-07
0.000142278
-9.70273e-07
0.000141353
-2.52447e-06
0.000139922
-3.68627e-06
0.000138454
-3.58108e-06
0.000137281
-2.77139e-06
-1.93143e-06
0.000136452
0.00011048
1.02969e-11
0.00011048
-4.50954e-10
0.000110475
-1.14757e-08
0.00011042
-1.30316e-07
0.00011013
-6.79921e-07
0.000109365
-1.75983e-06
0.000108227
-2.54809e-06
0.000107101
-2.4549e-06
0.00010622
-1.89056e-06
-1.31477e-06
0.000105603
8.55409e-05
6.63813e-12
8.55407e-05
-2.90896e-10
8.55367e-05
-7.5227e-09
8.54918e-05
-8.53331e-08
8.52566e-05
-4.44738e-07
8.46448e-05
-1.148e-06
8.37517e-05
-1.655e-06
8.28845e-05
-1.58774e-06
8.22137e-05
-1.21973e-06
-8.47344e-07
8.17463e-05
6.62312e-05
3.83737e-12
6.62311e-05
-1.63802e-10
6.62279e-05
-4.38313e-09
6.61922e-05
-4.96373e-08
6.60061e-05
-2.58594e-07
6.55247e-05
-6.66643e-07
6.48288e-05
-9.59088e-07
6.41593e-05
-9.18273e-07
6.36442e-05
-7.04623e-07
-4.89254e-07
6.32861e-05
5.12804e-05
1.67529e-12
5.12803e-05
-6.42726e-11
5.12778e-05
-1.92479e-09
5.12499e-05
-2.16971e-08
5.11044e-05
-1.13061e-07
5.0729e-05
-2.91301e-07
5.01887e-05
-4.18755e-07
4.9671e-05
-4.00619e-07
4.92737e-05
-3.0727e-07
-2.13311e-07
4.89977e-05
3.97045e-05
3.97045e-05
3.97026e-05
3.96809e-05
3.95678e-05
3.92765e-05
3.88577e-05
3.84571e-05
3.81499e-05
3.79365e-05
0.000381399
-6.07411e-06
1.06671e-05
0.000376017
-6.93984e-06
1.23214e-05
0.000370305
-7.7134e-06
1.34258e-05
0.000364863
-8.27863e-06
1.37202e-05
0.000360224
-8.53323e-06
1.31726e-05
0.000356692
-8.41961e-06
1.1952e-05
0.000354309
-7.94089e-06
1.03239e-05
0.000352918
-7.15712e-06
8.54804e-06
0.000352263
-6.16605e-06
6.82062e-06
0.000352081
-5.07841e-06
5.26087e-06
0.000352152
-3.99656e-06
3.92497e-06
0.000352326
-3.00094e-06
2.82746e-06
0.000352511
-2.14455e-06
1.95926e-06
0.000352665
-1.45327e-06
1.29898e-06
0.000352776
-9.29562e-07
8.18764e-07
0.000352847
-5.58187e-07
4.87345e-07
0.000352888
-3.12512e-07
2.71806e-07
0.000352909
-1.61e-07
1.39287e-07
0.000352917
-7.41262e-08
6.59694e-08
-1.96953e-08
1.45326e-08
0.000293765
-3.98603e-06
0.000291357
-4.53143e-06
0.000288702
-5.05867e-06
0.000285935
-5.51202e-06
0.000283229
-5.82728e-06
0.000280755
-5.94534e-06
0.000278642
-5.8279e-06
0.000276955
-5.46964e-06
0.00027569
-4.90165e-06
0.000274797
-4.18511e-06
0.000274198
-3.39757e-06
0.000273814
-2.61686e-06
0.000273577
-1.9073e-06
0.000273435
-1.31134e-06
0.000273352
-8.47247e-07
0.000273306
-5.12037e-07
0.000273281
-2.87725e-07
0.000273269
-1.48566e-07
0.000273263
-6.8124e-08
-1.86797e-08
0.000226975
-2.75908e-06
0.000225573
-3.12915e-06
0.000224012
-3.4978e-06
0.000222333
-3.83365e-06
0.000220603
-4.09658e-06
0.000218901
-4.24351e-06
0.000217311
-4.23787e-06
0.000215901
-4.06016e-06
0.000214716
-3.71583e-06
0.000213767
-3.23668e-06
0.000213044
-2.67488e-06
0.000212519
-2.09132e-06
0.000212154
-1.54247e-06
0.000211913
-1.06996e-06
0.000211761
-6.95617e-07
0.000211671
-4.22113e-07
0.000211621
-2.37752e-07
0.000211595
-1.22941e-07
0.000211584
-5.62514e-08
-1.56866e-08
0.000175566
-1.94011e-06
0.000174634
-2.1977e-06
0.000173594
-2.45781e-06
0.000172462
-2.70092e-06
0.000171266
-2.90083e-06
0.00017005
-3.02741e-06
0.000168864
-3.05223e-06
0.00016776
-2.95617e-06
0.000166781
-2.73645e-06
0.000165954
-2.41016e-06
0.000165291
-2.01201e-06
0.000164787
-1.58665e-06
0.000164423
-1.17835e-06
0.000164174
-8.21649e-07
0.000164015
-5.36158e-07
0.000163919
-3.26142e-07
0.000163865
-1.83962e-07
0.000163837
-9.52057e-08
0.000163825
-4.3527e-08
-1.22266e-08
0.000135867
-1.35526e-06
0.000135203
-1.53424e-06
0.000134462
-1.71618e-06
0.000133649
-1.88838e-06
0.000132782
-2.03331e-06
0.000131884
-2.13018e-06
0.000130991
-2.15835e-06
0.000130137
-2.10255e-06
0.000129359
-1.95832e-06
0.000128684
-1.73535e-06
0.000128129
-1.4568e-06
0.000127697
-1.15437e-06
0.000127379
-8.60651e-07
0.000127159
-6.01896e-07
0.000127016
-3.93586e-07
0.00012693
-2.39749e-07
0.000126882
-1.35344e-07
0.000126856
-7.00777e-08
0.000126845
-3.20284e-08
-9.02779e-09
0.00010517
-9.21807e-07
0.000104679
-1.0432e-06
0.00010413
-1.16703e-06
0.000103526
-1.28496e-06
0.000102878
-1.38539e-06
0.000102202
-1.45427e-06
0.000101521
-1.47732e-06
0.000100862
-1.44353e-06
0.000100253
-1.34893e-06
9.97167e-05
-1.19925e-06
9.92697e-05
-1.0098e-06
9.89176e-05
-8.0226e-07
9.86563e-05
-5.99399e-07
9.84743e-05
-4.19865e-07
9.83556e-05
-2.7487e-07
9.82834e-05
-1.67562e-07
9.82427e-05
-9.46363e-08
9.82217e-05
-4.90126e-08
9.8212e-05
-2.23973e-08
-6.32377e-09
8.14183e-05
-5.93846e-07
8.1047e-05
-6.71942e-07
8.06317e-05
-7.51737e-07
8.01747e-05
-8.27968e-07
7.96826e-05
-8.93258e-07
7.91669e-05
-9.38603e-07
7.86444e-05
-9.54738e-07
7.81352e-05
-9.34349e-07
7.76608e-05
-8.74585e-07
7.72404e-05
-7.78844e-07
7.68874e-05
-6.56829e-07
7.66077e-05
-5.22537e-07
7.63991e-05
-3.90835e-07
7.62533e-05
-2.73999e-07
7.61579e-05
-1.79484e-07
7.60998e-05
-1.09458e-07
7.6067e-05
-6.18345e-08
7.605e-05
-3.20282e-08
7.60423e-05
-1.46345e-08
-4.13527e-09
6.30351e-05
-3.4282e-07
6.2751e-05
-3.87874e-07
6.24332e-05
-4.33944e-07
6.20833e-05
-4.7802e-07
6.17059e-05
-5.15872e-07
6.13096e-05
-5.42312e-07
6.09069e-05
-5.51975e-07
6.05131e-05
-5.40582e-07
6.01449e-05
-5.06406e-07
5.98174e-05
-4.51327e-07
5.95415e-05
-3.80902e-07
5.93221e-05
-3.03218e-07
5.91582e-05
-2.26912e-07
5.90434e-05
-1.59142e-07
5.89681e-05
-1.04276e-07
5.89223e-05
-6.36043e-08
5.88964e-05
-3.5935e-08
5.8883e-05
-1.86137e-08
5.88769e-05
-8.50421e-09
-2.40369e-09
4.88044e-05
-1.49456e-07
4.85856e-05
-1.69092e-07
4.83408e-05
-1.89178e-07
4.80712e-05
-2.08405e-07
4.77803e-05
-2.24934e-07
4.74745e-05
-2.36506e-07
4.71633e-05
-2.40778e-07
4.68586e-05
-2.35877e-07
4.65732e-05
-2.21033e-07
4.63189e-05
-1.97054e-07
4.61044e-05
-1.66354e-07
4.59336e-05
-1.3246e-07
4.58058e-05
-9.91462e-08
4.57162e-05
-6.95462e-08
4.56575e-05
-4.55739e-08
4.56217e-05
-2.78003e-08
4.56015e-05
-1.57069e-08
4.5591e-05
-8.13526e-09
4.55863e-05
-3.71587e-09
-1.05006e-09
3.77871e-05
3.7618e-05
3.74288e-05
3.72204e-05
3.69955e-05
3.6759e-05
3.65182e-05
3.62823e-05
3.60613e-05
3.58642e-05
3.56979e-05
3.55654e-05
3.54663e-05
3.53967e-05
3.53511e-05
3.53233e-05
3.53076e-05
3.52995e-05
3.52958e-05
9.69757e-06
-8.58604e-05
9.78517e-05
9.35435e-06
-4.73099e-05
4.76531e-05
9.69368e-06
-3.0132e-05
2.97926e-05
1.01171e-05
-2.02554e-05
1.9832e-05
1.05066e-05
-1.39396e-05
1.35501e-05
1.08297e-05
-9.75273e-06
9.4296e-06
1.10847e-05
-6.91813e-06
6.66315e-06
1.12802e-05
-4.95621e-06
4.76069e-06
1.14271e-05
-3.5646e-06
3.41771e-06
1.15354e-05
-2.55471e-06
2.44643e-06
1.16135e-05
-1.80984e-06
1.73172e-06
1.16684e-05
-1.25712e-06
1.2022e-06
1.17058e-05
-8.49178e-07
8.11779e-07
1.17303e-05
-5.53202e-07
5.28708e-07
1.17456e-05
-3.44712e-07
3.29407e-07
1.17546e-05
-2.03589e-07
1.94562e-07
1.17595e-05
-1.14186e-07
1.093e-07
1.17622e-05
-5.74164e-08
5.46783e-08
1.1763e-05
-3.05352e-08
2.97667e-08
-3.3108e-09
2.48429e-09
1.36186e-05
-7.32343e-05
1.24921e-05
-4.61834e-05
1.27144e-05
-3.03543e-05
1.3168e-05
-2.0709e-05
1.36243e-05
-1.43959e-05
1.4017e-05
-1.01455e-05
1.43332e-05
-7.23433e-06
1.45785e-05
-5.20162e-06
1.47642e-05
-3.75038e-06
1.49018e-05
-2.69233e-06
1.50013e-05
-1.90946e-06
1.50714e-05
-1.32738e-06
1.51193e-05
-8.97097e-07
1.51506e-05
-5.84686e-07
1.51702e-05
-3.64637e-07
1.51818e-05
-2.16533e-07
1.5188e-05
-1.23063e-07
1.51915e-05
-5.87253e-08
1.51925e-05
-3.89863e-08
5.78929e-09
1.89258e-05
-6.06176e-05
1.67742e-05
-4.40319e-05
1.67409e-05
-3.0321e-05
1.71771e-05
-2.11453e-05
1.76892e-05
-1.49079e-05
1.81551e-05
-1.06115e-05
1.8541e-05
-7.62025e-06
1.88456e-05
-5.50614e-06
1.90785e-05
-3.98329e-06
1.92521e-05
-2.86598e-06
1.93783e-05
-2.03568e-06
1.94675e-05
-1.41655e-06
1.95284e-05
-9.58017e-07
1.95684e-05
-6.24673e-07
1.95934e-05
-3.8966e-07
1.96082e-05
-2.3131e-07
1.96162e-05
-1.31066e-07
1.96207e-05
-6.32016e-08
1.96219e-05
-4.0263e-08
4.47411e-09
2.59248e-05
-4.87612e-05
2.2613e-05
-4.07202e-05
2.21355e-05
-2.98434e-05
2.24677e-05
-2.14775e-05
2.30039e-05
-1.54441e-05
2.35369e-05
-1.11445e-05
2.39972e-05
-8.0806e-06
2.43693e-05
-5.87816e-06
2.4658e-05
-4.27201e-06
2.48752e-05
-3.08323e-06
2.50341e-05
-2.19455e-06
2.51468e-05
-1.52922e-06
2.52239e-05
-1.0352e-06
2.52747e-05
-6.75422e-07
2.53065e-05
-4.21453e-07
2.53253e-05
-2.50097e-07
2.53355e-05
-1.41261e-07
2.53411e-05
-6.88707e-08
2.53428e-05
-4.19274e-08
2.84752e-09
3.49156e-05
-3.83483e-05
3.05171e-05
-3.63217e-05
2.93879e-05
-2.87142e-05
2.94807e-05
-2.15703e-05
2.99761e-05
-1.59395e-05
3.05516e-05
-1.172e-05
3.1082e-05
-8.61094e-06
3.15258e-05
-6.32203e-06
3.18776e-05
-4.62377e-06
3.21458e-05
-3.35142e-06
3.23436e-05
-2.39232e-06
3.24846e-05
-1.67028e-06
3.25816e-05
-1.13219e-06
3.26455e-05
-7.39355e-07
3.26857e-05
-4.61571e-07
3.27094e-05
-2.73826e-07
3.27223e-05
-1.54168e-07
3.27294e-05
-7.59987e-08
3.27316e-05
-4.40918e-08
8.61109e-10
4.62239e-05
-2.97892e-05
4.10714e-05
-3.11691e-05
3.91357e-05
-2.67786e-05
3.88118e-05
-2.12464e-05
3.91569e-05
-1.62846e-05
3.972e-05
-1.22831e-05
4.02982e-05
-9.18918e-06
4.08089e-05
-6.83269e-06
4.12263e-05
-5.0412e-06
4.15507e-05
-3.67582e-06
4.17929e-05
-2.63451e-06
4.1967e-05
-1.84442e-06
4.20874e-05
-1.25257e-06
4.2167e-05
-8.19e-07
4.22171e-05
-5.11665e-07
4.22468e-05
-3.03498e-07
4.2263e-05
-1.70353e-07
4.22718e-05
-8.48675e-08
4.22746e-05
-4.68887e-08
-1.52514e-09
6.03023e-05
-2.31014e-05
5.49173e-05
-2.57842e-05
5.21686e-05
-2.40298e-05
5.12483e-05
-2.03261e-05
5.12875e-05
-1.63238e-05
5.17406e-05
-1.27363e-05
5.2315e-05
-9.76362e-06
5.28692e-05
-7.38685e-06
5.33443e-05
-5.51635e-06
5.37243e-05
-4.05583e-06
5.40133e-05
-2.92345e-06
5.42236e-05
-2.0547e-06
5.43701e-05
-1.39913e-06
5.44676e-05
-9.16483e-07
5.45291e-05
-5.73193e-07
5.45656e-05
-3.40021e-07
5.45856e-05
-1.90343e-07
5.45964e-05
-9.57289e-08
5.46e-05
-5.04572e-08
-4.33016e-09
7.78781e-05
-1.79705e-05
7.2778e-05
-2.06841e-05
6.94121e-05
-2.06639e-05
6.7791e-05
-1.8705e-05
6.7349e-05
-1.58818e-05
6.75488e-05
-1.2936e-05
6.80257e-05
-1.02405e-05
6.85693e-05
-7.93046e-06
6.90739e-05
-6.02094e-06
6.94962e-05
-4.47814e-06
6.98266e-05
-3.25381e-06
7.00715e-05
-2.29965e-06
7.02444e-05
-1.57199e-06
7.03603e-05
-1.03242e-06
7.04339e-05
-6.46766e-07
7.04777e-05
-3.8384e-07
7.05018e-05
-2.14425e-07
7.05147e-05
-1.08702e-07
7.05192e-05
-5.49019e-08
-7.53172e-09
0.000100069
-1.39567e-05
9.55677e-05
-1.61832e-05
9.19249e-05
-1.70212e-05
8.96519e-05
-1.64321e-05
8.86001e-05
-1.483e-05
8.83801e-05
-1.2716e-05
8.86205e-05
-1.04809e-05
8.90558e-05
-8.36581e-06
8.95275e-05
-6.49261e-06
8.99548e-05
-4.90545e-06
9.03053e-05
-3.60436e-06
9.05734e-05
-2.56768e-06
9.07664e-05
-1.76503e-06
9.08976e-05
-1.16366e-06
9.09816e-05
-7.30778e-07
9.10319e-05
-4.34148e-07
9.10597e-05
-2.42217e-07
9.10745e-05
-1.23557e-07
9.10798e-05
-6.01967e-08
-1.10348e-08
0.000128415
0.000124554
0.000120958
0.000118246
0.000116589
0.000115825
0.000115668
0.00011585
0.000116178
0.000116533
0.000116854
0.000117114
0.000117308
0.000117443
0.000117531
0.000117585
0.000117614
0.00011763
0.000117636
8.45706e-07
-8.45706e-07
1.54495e-06
-6.99247e-07
2.03099e-06
-4.86034e-07
2.34702e-06
-3.16035e-07
2.55144e-06
-2.04423e-07
2.68653e-06
-1.35085e-07
2.77826e-06
-9.17293e-08
2.84198e-06
-6.3722e-08
2.88686e-06
-4.48837e-08
2.91859e-06
-3.17248e-08
2.94086e-06
-2.22705e-08
2.95623e-06
-1.53751e-08
2.96658e-06
-1.0344e-08
2.9733e-06
-6.7202e-09
2.97747e-06
-4.17637e-09
2.97993e-06
-2.45482e-09
2.98126e-06
-1.33469e-09
2.98199e-06
-7.27013e-10
2.98222e-06
-2.31405e-10
-1.9615e-10
1.02651e-06
-1.87221e-06
1.87497e-06
-1.54771e-06
2.4646e-06
-1.07567e-06
2.84799e-06
-6.99424e-07
3.09599e-06
-4.52422e-07
3.25988e-06
-2.98974e-07
3.37117e-06
-2.03022e-07
3.44849e-06
-1.41037e-07
3.50294e-06
-9.93429e-08
3.54144e-06
-7.02182e-08
3.56846e-06
-4.92928e-08
3.58712e-06
-3.4031e-08
3.59967e-06
-2.28953e-08
3.60782e-06
-1.48746e-08
3.61289e-06
-9.24497e-09
3.61587e-06
-5.43444e-09
3.61748e-06
-2.9541e-09
3.61837e-06
-1.61089e-09
3.61865e-06
-5.10126e-10
-4.34168e-10
1.24662e-06
-3.11883e-06
2.27611e-06
-2.5772e-06
2.9912e-06
-1.79076e-06
3.4561e-06
-1.16433e-06
3.75686e-06
-7.53182e-07
3.95565e-06
-4.97756e-07
4.09065e-06
-3.38025e-07
4.18444e-06
-2.34831e-07
4.25051e-06
-1.65413e-07
4.29721e-06
-1.16921e-07
4.33e-06
-8.20786e-08
4.35263e-06
-5.66661e-08
4.36786e-06
-3.81239e-08
4.37776e-06
-2.47686e-08
4.3839e-06
-1.53949e-08
4.38752e-06
-9.04971e-09
4.38948e-06
-4.91897e-09
4.39055e-06
-2.68336e-09
4.39089e-06
-8.4827e-10
-7.23009e-10
1.51523e-06
-4.63406e-06
2.76434e-06
-3.82631e-06
3.63107e-06
-2.65749e-06
4.19447e-06
-1.72773e-06
4.55901e-06
-1.11773e-06
4.80002e-06
-7.3876e-07
4.96373e-06
-5.01741e-07
5.07749e-06
-3.48592e-07
5.15763e-06
-2.45558e-07
5.21429e-06
-1.73576e-07
5.25406e-06
-1.21853e-07
5.28152e-06
-8.41271e-08
5.3e-06
-5.65997e-08
5.312e-06
-3.67724e-08
5.31946e-06
-2.28563e-08
5.32385e-06
-1.3436e-08
5.32623e-06
-7.30284e-09
5.32752e-06
-3.9846e-09
5.32794e-06
-1.25844e-09
-1.07356e-09
1.84423e-06
-6.4783e-06
3.3597e-06
-5.34178e-06
4.40932e-06
-3.70711e-06
5.09136e-06
-2.40977e-06
5.53283e-06
-1.55919e-06
5.82483e-06
-1.03076e-06
6.02326e-06
-7.0018e-07
6.16119e-06
-4.86521e-07
6.25838e-06
-3.42748e-07
6.3271e-06
-2.4229e-07
6.37534e-06
-1.70098e-07
6.40865e-06
-1.17438e-07
6.43106e-06
-7.90123e-08
6.44562e-06
-5.13343e-08
6.45467e-06
-3.19079e-08
6.45999e-06
-1.87572e-08
6.46288e-06
-1.01948e-08
6.46446e-06
-5.56335e-09
6.46496e-06
-1.75582e-09
-1.49906e-09
2.24947e-06
-8.72776e-06
4.08788e-06
-7.18018e-06
5.35719e-06
-4.97643e-06
6.18152e-06
-3.2341e-06
6.7154e-06
-2.09307e-06
7.06882e-06
-1.38418e-06
7.30916e-06
-9.40527e-07
7.4763e-06
-6.53663e-07
7.59412e-06
-4.60564e-07
7.67743e-06
-3.25604e-07
7.73593e-06
-2.28602e-07
7.77633e-06
-1.57837e-07
7.80351e-06
-1.06195e-07
7.82118e-06
-6.89964e-08
7.83215e-06
-4.28869e-08
7.8386e-06
-2.52115e-08
7.84211e-06
-1.37024e-08
7.84402e-06
-7.4786e-09
7.84463e-06
-2.35872e-09
-2.01568e-09
2.7528e-06
-1.14806e-05
4.98245e-06
-9.40984e-06
6.51408e-06
-6.50806e-06
7.50785e-06
-4.22787e-06
8.15212e-06
-2.73734e-06
8.57919e-06
-1.81126e-06
8.86996e-06
-1.23129e-06
9.07233e-06
-8.56035e-07
9.21505e-06
-6.0329e-07
9.31602e-06
-4.26572e-07
9.38694e-06
-2.9952e-07
9.43591e-06
-2.06815e-07
9.46887e-06
-1.39155e-07
9.49029e-06
-9.04133e-08
9.5036e-06
-5.62006e-08
9.51142e-06
-3.30386e-08
9.51567e-06
-1.79558e-08
9.51799e-06
-9.80178e-09
9.51872e-06
-3.08902e-09
-2.64315e-09
3.38582e-06
-1.48664e-05
6.08871e-06
-1.21127e-05
7.93047e-06
-8.34981e-06
9.12384e-06
-5.42124e-06
9.89878e-06
-3.51229e-06
1.04136e-05
-2.32607e-06
1.07647e-05
-1.58244e-06
1.10094e-05
-1.10075e-06
1.11822e-05
-7.7603e-07
1.13045e-05
-5.48843e-07
1.13904e-05
-3.85434e-07
1.14497e-05
-2.66165e-07
1.14897e-05
-1.791e-07
1.15156e-05
-1.16373e-07
1.15318e-05
-7.23392e-08
1.15412e-05
-4.2527e-08
1.15464e-05
-2.31115e-08
1.15492e-05
-1.26192e-08
1.15501e-05
-3.97275e-09
-3.40568e-09
4.19667e-06
-1.90631e-05
7.46997e-06
-1.5386e-05
9.6725e-06
-1.05523e-05
1.10969e-05
-6.84563e-06
1.20243e-05
-4.43974e-06
1.26426e-05
-2.94435e-06
1.30655e-05
-2.00535e-06
1.33609e-05
-1.39608e-06
1.35696e-05
-9.84793e-07
1.37175e-05
-6.96746e-07
1.38215e-05
-4.8942e-07
1.38934e-05
-3.38027e-07
1.39418e-05
-2.2748e-07
1.39732e-05
-1.47818e-07
1.39927e-05
-9.18911e-08
1.40042e-05
-5.40231e-08
1.40105e-05
-2.93571e-08
1.40139e-05
-1.6035e-08
1.4015e-05
-5.04044e-09
-4.33316e-09
5.26319e-06
-2.43263e-05
9.21852e-06
-1.93414e-05
1.18291e-05
-1.31629e-05
1.35132e-05
-8.52976e-06
1.46147e-05
-5.54126e-06
1.53531e-05
-3.6827e-06
1.58604e-05
-2.51265e-06
1.62158e-05
-1.75146e-06
1.64675e-05
-1.23654e-06
1.66461e-05
-8.75352e-07
1.67718e-05
-6.15108e-07
1.68587e-05
-4.2494e-07
1.69172e-05
-2.86016e-07
1.69553e-05
-1.85876e-07
1.6979e-05
-1.15558e-07
1.69929e-05
-6.79405e-08
1.70004e-05
-3.69164e-08
1.70046e-05
-2.01743e-08
1.70058e-05
-6.32734e-09
-5.4627e-09
6.72007e-06
-3.10463e-05
1.14751e-05
-2.40964e-05
1.45235e-05
-1.62113e-05
1.64852e-05
-1.04915e-05
1.77782e-05
-6.83421e-06
1.86524e-05
-4.55692e-06
1.92572e-05
-3.11745e-06
1.9683e-05
-2.17722e-06
1.99855e-05
-1.53912e-06
2.02007e-05
-1.09049e-06
2.03523e-05
-7.66714e-07
2.04572e-05
-5.29871e-07
2.05279e-05
-3.56732e-07
2.05739e-05
-2.31871e-07
2.06025e-05
-1.44169e-07
2.06193e-05
-8.47686e-08
2.06285e-05
-4.60532e-08
2.06335e-05
-2.51869e-08
2.0635e-05
-7.87282e-09
-6.841e-09
8.81821e-06
-3.98645e-05
1.44641e-05
-2.97423e-05
1.79318e-05
-1.9679e-05
2.01624e-05
-1.27222e-05
2.16527e-05
-8.32448e-06
2.26744e-05
-5.57865e-06
2.33889e-05
-3.83189e-06
2.38955e-05
-2.6839e-06
2.42574e-05
-1.90101e-06
2.45156e-05
-1.34863e-06
2.46979e-05
-9.49019e-07
2.48242e-05
-6.56228e-07
2.49095e-05
-4.41967e-07
2.49649e-05
-2.87344e-07
2.49995e-05
-1.7869e-07
2.50198e-05
-1.05079e-07
2.50308e-05
-5.70742e-08
2.50368e-05
-3.12511e-08
2.50387e-05
-9.71849e-09
-8.52772e-09
1.20666e-05
-5.19312e-05
1.85571e-05
-3.62328e-05
2.23113e-05
-2.34332e-05
2.47475e-05
-1.51584e-05
2.64169e-05
-9.99379e-06
2.75876e-05
-6.74937e-06
2.84199e-05
-4.66423e-06
2.90169e-05
-3.28094e-06
2.94466e-05
-2.33066e-06
2.97546e-05
-1.65662e-06
2.99728e-05
-1.16723e-06
3.01243e-05
-8.07789e-07
3.02267e-05
-5.44348e-07
3.02934e-05
-3.5404e-07
3.03349e-05
-2.20221e-07
3.03594e-05
-1.29525e-07
3.03726e-05
-7.03273e-08
3.03799e-05
-3.85763e-08
3.03821e-05
-1.19037e-08
-1.06008e-08
1.76059e-05
-6.95371e-05
2.43815e-05
-4.30083e-05
2.8041e-05
-2.70928e-05
3.05188e-05
-1.76362e-05
3.23048e-05
-1.17798e-05
3.3606e-05
-8.05057e-06
3.45555e-05
-5.6138e-06
3.52486e-05
-3.97401e-06
3.57531e-05
-2.83513e-06
3.61174e-05
-2.02094e-06
3.63767e-05
-1.4266e-06
3.65575e-05
-9.88515e-07
3.66798e-05
-6.66693e-07
3.67596e-05
-4.33854e-07
3.68094e-05
-2.69969e-07
3.68386e-05
-1.58827e-07
3.68545e-05
-8.61908e-08
3.68633e-05
-4.74055e-08
3.68659e-05
-1.44556e-08
-1.3165e-08
2.83146e-05
3.29594e-05
3.56592e-05
3.78551e-05
3.96254e-05
4.10044e-05
4.20537e-05
4.28403e-05
4.34229e-05
4.38483e-05
4.41534e-05
4.4367e-05
4.4512e-05
4.46069e-05
4.46661e-05
4.4701e-05
4.47198e-05
4.47304e-05
4.47333e-05
)
;

boundaryField
{
    inlet
    {
        type            calculated;
        value           nonuniform List<scalar> 
20
(
-1.32349e-05
-1.70935e-05
-2.20771e-05
-2.85136e-05
-3.68268e-05
-4.75636e-05
-6.14307e-05
-7.93409e-05
-0.000102473
-0.000132349
-0.000397046
-0.000307418
-0.000238023
-0.000184292
-0.000142691
-0.00011048
-8.55409e-05
-6.62312e-05
-5.12804e-05
-3.97046e-05
)
;
    }
    outlet
    {
        type            calculated;
        value           nonuniform List<scalar> 
35
(
2.98241e-06
3.61888e-06
4.39118e-06
5.32829e-06
6.46538e-06
7.84514e-06
9.51935e-06
1.15508e-05
1.40159e-05
1.7007e-05
2.06364e-05
2.50404e-05
3.03842e-05
3.68684e-05
4.47365e-05
1.17638e-05
1.51936e-05
1.96232e-05
2.53444e-05
3.27335e-05
4.2277e-05
5.46028e-05
7.05223e-05
9.10833e-05
0.000117639
0.000352922
0.000273262
0.000211581
0.000163821
0.000126842
9.82093e-05
7.60401e-05
5.88751e-05
4.55849e-05
3.52947e-05
)
;
    }
    frontAndBack
    {
        type            empty;
        value           nonuniform 0();
    }
    noslipwall
    {
        type            calculated;
        value           uniform 0;
    }
}


// ************************************************************************* //
