/*--------------------------------*- C++ -*----------------------------------*\
  =========                 |
  \\      /  F ield         | OpenFOAM: The Open Source CFD Toolbox
   \\    /   O peration     | Website:  https://openfoam.org
    \\  /    A nd           | Version:  7
     \\/     M anipulation  |
\*---------------------------------------------------------------------------*/
FoamFile
{
    version     2.0;
    format      ascii;
    class       surfaceScalarField;
    location    "0";
    object      phi3;
}
// * * * * * * * * * * * * * * * * * * * * * * * * * * * * * * * * * * * * * //

dimensions      [0 3 -1 0 0 0 0];

internalField   nonuniform List<scalar> 
1735
(
1.40747e-05
2.70599e-12
1.40747e-05
-2.91562e-11
1.40754e-05
-6.74402e-10
1.40833e-05
-7.90495e-09
1.41284e-05
-4.51398e-08
1.42766e-05
-1.48223e-07
1.46229e-05
-3.4623e-07
1.53322e-05
-7.09347e-07
1.6939e-05
-1.6068e-06
-6.12612e-06
2.30651e-05
1.81781e-05
2.99447e-12
1.81782e-05
-6.33499e-11
1.8179e-05
-1.54769e-09
1.81892e-05
-1.81091e-08
1.82475e-05
-1.0341e-07
1.84388e-05
-3.39517e-07
1.88853e-05
-7.92755e-07
1.97976e-05
-1.62166e-06
2.18282e-05
-3.63738e-06
-1.2208e-05
2.79101e-05
2.34779e-05
3.36833e-12
2.3478e-05
-1.0746e-10
2.34791e-05
-2.67415e-09
2.34923e-05
-3.12704e-08
2.35674e-05
-1.78552e-07
2.38139e-05
-5.86036e-07
2.43882e-05
-1.36699e-06
2.55521e-05
-2.78555e-06
2.80327e-05
-6.118e-06
-1.77192e-05
3.35439e-05
3.03229e-05
3.85231e-12
3.0323e-05
-1.64273e-10
3.03244e-05
-4.12484e-09
3.03414e-05
-4.8218e-08
3.04381e-05
-2.75265e-07
3.07549e-05
-9.02855e-07
3.14895e-05
-2.1016e-06
3.29529e-05
-4.24895e-06
3.58341e-05
-8.99915e-06
-2.20636e-05
4.01785e-05
3.91636e-05
4.48708e-12
3.91637e-05
-2.37245e-10
3.91655e-05
-5.98776e-09
3.91873e-05
-6.99754e-08
3.93113e-05
-3.99309e-07
3.97165e-05
-1.30802e-06
4.06474e-05
-3.03254e-06
4.24423e-05
-6.04387e-06
4.555e-05
-1.21068e-05
-2.47185e-05
4.82049e-05
5.05817e-05
5.32357e-12
5.05818e-05
-3.30513e-10
5.05842e-05
-8.36783e-09
5.0612e-05
-9.77586e-08
5.07701e-05
-5.57425e-07
5.12837e-05
-1.82163e-06
5.24443e-05
-4.19311e-06
5.45582e-05
-8.15784e-06
5.75616e-05
-1.51102e-05
-2.54162e-05
5.82592e-05
6.53288e-05
6.44227e-12
6.53289e-05
-4.48691e-10
6.53319e-05
-1.13813e-08
6.53671e-05
-1.32903e-07
6.55664e-05
-7.56786e-07
6.62076e-05
-2.46282e-06
6.76144e-05
-5.59996e-06
6.99482e-05
-1.04916e-05
7.2384e-05
-1.7546e-05
-2.42731e-05
7.12409e-05
8.43753e-05
7.97915e-12
8.43755e-05
-5.96143e-10
8.43793e-05
-1.5136e-08
8.4423e-05
-1.7662e-07
8.46695e-05
-1.00334e-06
8.54487e-05
-3.24197e-06
8.70751e-05
-7.22636e-06
8.93989e-05
-1.28154e-05
9.07875e-05
-1.89346e-05
-2.17618e-05
8.82762e-05
0.000108975
1.01636e-11
0.000108975
-7.75096e-10
0.00010898
-1.96812e-08
0.000109032
-2.29383e-07
0.000109327
-1.29787e-06
0.000110229
-4.14445e-06
0.000111963
-8.95992e-06
0.000113908
-1.47601e-05
0.000113942
-1.8969e-05
-1.85064e-05
0.000110687
0.000140747
1.34202e-11
0.000140747
-9.81341e-10
0.000140752
-2.48922e-08
0.000140812
-2.89554e-07
0.000141142
-1.62754e-06
0.000142098
-5.10035e-06
0.00014369
-1.05518e-05
0.000144822
-1.5892e-05
0.00014354
-1.76878e-05
-1.50283e-05
0.000140062
0.00042224
6.93599e-11
0.00042224
-1.43212e-09
0.00042225
-3.48645e-08
0.000422363
-4.02541e-07
0.000422934
-2.19803e-06
0.000424191
-6.35793e-06
0.000424803
-1.11635e-05
0.000422259
-1.33486e-05
0.000416549
-1.19772e-05
-8.96405e-06
0.000410485
0.000326925
4.73586e-11
0.000326925
-1.39905e-09
0.000326925
-3.45899e-08
0.000326919
-3.96647e-07
0.000326844
-2.12345e-06
0.000326331
-5.84447e-06
0.000324548
-9.38085e-06
0.000321273
-1.00731e-05
0.000317616
-8.32109e-06
-5.9739e-06
0.000314626
0.000253126
3.29364e-11
0.000253126
-1.18935e-09
0.000253121
-2.96263e-08
0.000253063
-3.38269e-07
0.000252728
-1.78887e-06
0.000251664
-4.78019e-06
0.000249577
-7.2945e-06
0.000246917
-7.41243e-06
0.000244494
-5.89863e-06
-4.16202e-06
0.000242682
0.000195986
2.31039e-11
0.000195986
-9.32308e-10
0.00019598
-2.33557e-08
0.000195908
-2.65969e-07
0.000195515
-1.39643e-06
0.000194403
-3.66831e-06
0.00019255
-5.44124e-06
0.000190507
-5.36958e-06
0.000188803
-4.19501e-06
-2.93573e-06
0.000187577
0.000151745
1.61061e-11
0.000151745
-6.88438e-10
0.000151739
-1.7357e-08
0.00015167
-1.97331e-07
0.000151306
-1.03184e-06
0.000150322
-2.68466e-06
0.000148801
-3.92018e-06
0.00014724
-3.80831e-06
0.000145992
-2.94724e-06
-2.05398e-06
0.00014511
0.000117491
1.09495e-11
0.000117491
-4.79569e-10
0.000117485
-1.22039e-08
0.000117427
-1.38585e-07
0.000117118
-7.23065e-07
0.000116305
-1.87149e-06
0.000115094
-2.70978e-06
0.000113897
-2.61067e-06
0.00011296
-2.01053e-06
-1.3982e-06
0.000112304
9.09688e-05
7.05823e-12
9.09687e-05
-3.09354e-10
9.09644e-05
-8.00005e-09
9.09166e-05
-9.07478e-08
9.06665e-05
-4.72959e-07
9.00158e-05
-1.22085e-06
8.90661e-05
-1.76002e-06
8.81439e-05
-1.68849e-06
8.74305e-05
-1.29713e-06
-9.01112e-07
8.69334e-05
7.04338e-05
4.08118e-12
7.04337e-05
-1.74196e-10
7.04304e-05
-4.66126e-09
7.03924e-05
-5.2787e-08
7.01944e-05
-2.75003e-07
6.96825e-05
-7.08945e-07
6.89425e-05
-1.01995e-06
6.82305e-05
-9.76541e-07
6.76827e-05
-7.49334e-07
-5.20299e-07
6.73019e-05
5.45344e-05
1.78144e-12
5.45343e-05
-6.83509e-11
5.45316e-05
-2.04693e-09
5.45019e-05
-2.30739e-08
5.43472e-05
-1.20235e-07
5.3948e-05
-3.09786e-07
5.33734e-05
-4.45327e-07
5.28229e-05
-4.2604e-07
5.24003e-05
-3.26767e-07
-2.26846e-07
5.21069e-05
4.2224e-05
4.22239e-05
4.22219e-05
4.21988e-05
4.20785e-05
4.17688e-05
4.13234e-05
4.08974e-05
4.05706e-05
4.03438e-05
0.0004056
-6.45953e-06
1.1344e-05
0.000399877
-7.3802e-06
1.31033e-05
0.000393802
-8.20285e-06
1.42778e-05
0.000388015
-8.80394e-06
1.45908e-05
0.000383082
-9.0747e-06
1.40084e-05
0.000379325
-8.95387e-06
1.27104e-05
0.000376791
-8.44478e-06
1.0979e-05
0.000375312
-7.61127e-06
9.09045e-06
0.000374616
-6.55731e-06
7.25342e-06
0.000374422
-5.40066e-06
5.59469e-06
0.000374498
-4.25016e-06
4.17402e-06
0.000374682
-3.19136e-06
3.00688e-06
0.000374879
-2.28064e-06
2.08359e-06
0.000375043
-1.54548e-06
1.3814e-06
0.000375161
-9.88546e-07
8.70719e-07
0.000375236
-5.93607e-07
5.18269e-07
0.00037528
-3.32342e-07
2.89053e-07
0.000375303
-1.71216e-07
1.48126e-07
0.000375311
-7.88298e-08
7.01554e-08
-2.0945e-08
1.54548e-08
0.000312406
-4.23896e-06
0.000309845
-4.81897e-06
0.000307021
-5.37966e-06
0.000304079
-5.86178e-06
0.000301201
-6.19705e-06
0.00029857
-6.3226e-06
0.000296323
-6.19771e-06
0.000294529
-5.81671e-06
0.000293184
-5.21268e-06
0.000292234
-4.45067e-06
0.000291597
-3.61316e-06
0.000291188
-2.78291e-06
0.000290936
-2.02833e-06
0.000290785
-1.39455e-06
0.000290698
-9.01008e-07
0.000290649
-5.44528e-07
0.000290622
-3.05982e-07
0.000290609
-1.57993e-07
0.000290602
-7.24468e-08
-1.9865e-08
0.000241377
-2.93415e-06
0.000239886
-3.32771e-06
0.000238226
-3.71975e-06
0.000236441
-4.07691e-06
0.000234601
-4.35652e-06
0.000232791
-4.51278e-06
0.0002311
-4.50678e-06
0.000229601
-4.31779e-06
0.00022834
-3.95161e-06
0.000227332
-3.44206e-06
0.000226563
-2.84461e-06
0.000226004
-2.22403e-06
0.000225616
-1.64034e-06
0.000225359
-1.13785e-06
0.000225198
-7.39756e-07
0.000225103
-4.48898e-07
0.000225049
-2.52838e-07
0.000225022
-1.30742e-07
0.00022501
-5.98208e-08
-1.6682e-08
0.000186706
-2.06321e-06
0.000185716
-2.33715e-06
0.00018461
-2.61377e-06
0.000183405
-2.8723e-06
0.000182133
-3.0849e-06
0.00018084
-3.21951e-06
0.000179579
-3.24591e-06
0.000178405
-3.14375e-06
0.000177364
-2.91009e-06
0.000176485
-2.56309e-06
0.00017578
-2.13968e-06
0.000175243
-1.68733e-06
0.000174856
-1.25312e-06
0.000174592
-8.73787e-07
0.000174422
-5.7018e-07
0.00017432
-3.46837e-07
0.000174263
-1.95635e-07
0.000174234
-1.01247e-07
0.00017422
-4.6289e-08
-1.30025e-08
0.000144488
-1.44125e-06
0.000143783
-1.63159e-06
0.000142994
-1.82508e-06
0.00014213
-2.0082e-06
0.000141207
-2.16234e-06
0.000140253
-2.26535e-06
0.000139302
-2.29531e-06
0.000138395
-2.23597e-06
0.000137567
-2.08258e-06
0.00013685
-1.84546e-06
0.000136259
-1.54924e-06
0.000135799
-1.22762e-06
0.000135462
-9.15262e-07
0.000135228
-6.40089e-07
0.000135076
-4.18561e-07
0.000134984
-2.54963e-07
0.000134933
-1.43932e-07
0.000134906
-7.45244e-08
0.000134894
-3.40607e-08
-9.60064e-09
0.000111843
-9.80299e-07
0.000111321
-1.1094e-06
0.000110737
-1.24109e-06
0.000110095
-1.3665e-06
0.000109406
-1.4733e-06
0.000108687
-1.54654e-06
0.000107963
-1.57107e-06
0.000107262
-1.53513e-06
0.000106614
-1.43452e-06
0.000106044
-1.27535e-06
0.000105569
-1.07388e-06
0.000105194
-8.53167e-07
0.000104916
-6.37433e-07
0.000104723
-4.46508e-07
0.000104597
-2.92311e-07
0.00010452
-1.78195e-07
0.000104477
-1.00641e-07
0.000104454
-5.21226e-08
0.000104444
-2.38185e-08
-6.72504e-09
8.65846e-05
-6.31528e-07
8.61898e-05
-7.1458e-07
8.57482e-05
-7.99438e-07
8.52622e-05
-8.80506e-07
8.47388e-05
-9.49939e-07
8.41904e-05
-9.98161e-07
8.36347e-05
-1.01532e-06
8.30932e-05
-9.93637e-07
8.25887e-05
-9.30081e-07
8.21416e-05
-8.28265e-07
8.17663e-05
-6.98508e-07
8.14688e-05
-5.55694e-07
8.1247e-05
-4.15635e-07
8.10919e-05
-2.91386e-07
8.09904e-05
-1.90873e-07
8.09287e-05
-1.16403e-07
8.08938e-05
-6.57582e-08
8.08757e-05
-3.40606e-08
8.08675e-05
-1.55632e-08
-4.39767e-09
6.7035e-05
-3.64573e-07
6.67329e-05
-4.12486e-07
6.63949e-05
-4.6148e-07
6.60227e-05
-5.08353e-07
6.56214e-05
-5.48606e-07
6.52e-05
-5.76724e-07
6.47716e-05
-5.87e-07
6.43529e-05
-5.74885e-07
6.39614e-05
-5.38539e-07
6.3613e-05
-4.79966e-07
6.33196e-05
-4.05072e-07
6.30864e-05
-3.22458e-07
6.2912e-05
-2.4131e-07
6.27899e-05
-1.69241e-07
6.27099e-05
-1.10892e-07
6.26612e-05
-6.76402e-08
6.26336e-05
-3.82153e-08
6.26194e-05
-1.97948e-08
6.26129e-05
-9.04384e-09
-2.55621e-09
5.19012e-05
-1.58939e-07
5.16686e-05
-1.79822e-07
5.14083e-05
-2.01182e-07
5.11215e-05
-2.21629e-07
5.08121e-05
-2.39207e-07
5.04869e-05
-2.51513e-07
5.0156e-05
-2.56057e-07
4.98319e-05
-2.50844e-07
4.95285e-05
-2.35059e-07
4.9258e-05
-2.09558e-07
4.90299e-05
-1.7691e-07
4.88483e-05
-1.40865e-07
4.87124e-05
-1.05437e-07
4.86171e-05
-7.39591e-08
4.85547e-05
-4.84658e-08
4.85166e-05
-2.95644e-08
4.84951e-05
-1.67036e-08
4.8484e-05
-8.65148e-09
4.84789e-05
-3.95166e-09
-1.11669e-09
4.01848e-05
4.0005e-05
3.98038e-05
3.95822e-05
3.9343e-05
3.90915e-05
3.88354e-05
3.85846e-05
3.83495e-05
3.814e-05
3.7963e-05
3.78222e-05
3.77167e-05
3.76428e-05
3.75943e-05
3.75648e-05
3.75481e-05
3.75394e-05
3.75355e-05
1.03129e-05
-9.13086e-05
0.000104061
9.94792e-06
-5.03119e-05
5.06769e-05
1.03088e-05
-3.2044e-05
3.16831e-05
1.07591e-05
-2.15407e-05
2.10904e-05
1.11733e-05
-1.48241e-05
1.44099e-05
1.15169e-05
-1.03716e-05
1.00279e-05
1.17881e-05
-7.35711e-06
7.08595e-06
1.1996e-05
-5.2707e-06
5.06278e-06
1.21522e-05
-3.79079e-06
3.63457e-06
1.22673e-05
-2.71681e-06
2.60167e-06
1.23504e-05
-1.92468e-06
1.8416e-06
1.24088e-05
-1.33689e-06
1.27849e-06
1.24486e-05
-9.03062e-07
8.6329e-07
1.24746e-05
-5.88305e-07
5.62257e-07
1.24909e-05
-3.66585e-07
3.50309e-07
1.25005e-05
-2.16508e-07
2.06908e-07
1.25057e-05
-1.21431e-07
1.16235e-07
1.25086e-05
-6.10597e-08
5.81479e-08
1.25094e-05
-3.24727e-08
3.16555e-08
-3.52087e-09
2.64193e-09
1.44827e-05
-7.78813e-05
1.32848e-05
-4.9114e-05
1.35212e-05
-3.22804e-05
1.40036e-05
-2.20231e-05
1.44888e-05
-1.53094e-05
1.49065e-05
-1.07893e-05
1.52427e-05
-7.69338e-06
1.55036e-05
-5.53169e-06
1.57011e-05
-3.98836e-06
1.58473e-05
-2.86317e-06
1.59532e-05
-2.03062e-06
1.60278e-05
-1.41161e-06
1.60787e-05
-9.54021e-07
1.6112e-05
-6.21787e-07
1.61328e-05
-3.87775e-07
1.61451e-05
-2.30273e-07
1.61518e-05
-1.30872e-07
1.61555e-05
-6.24517e-08
1.61566e-05
-4.14602e-08
6.15664e-09
2.01267e-05
-6.44641e-05
1.78386e-05
-4.68259e-05
1.78031e-05
-3.2245e-05
1.82671e-05
-2.2487e-05
1.88116e-05
-1.58539e-05
1.93071e-05
-1.12849e-05
1.97175e-05
-8.10378e-06
2.00414e-05
-5.85553e-06
2.02891e-05
-4.23605e-06
2.04737e-05
-3.04784e-06
2.0608e-05
-2.16485e-06
2.07028e-05
-1.50644e-06
2.07676e-05
-1.01881e-06
2.08101e-05
-6.64311e-07
2.08367e-05
-4.14385e-07
2.08524e-05
-2.45987e-07
2.08609e-05
-1.39383e-07
2.08657e-05
-6.7212e-08
2.0867e-05
-4.28178e-08
4.75802e-09
2.75698e-05
-5.18553e-05
2.40479e-05
-4.33041e-05
2.35401e-05
-3.17371e-05
2.38934e-05
-2.28403e-05
2.44636e-05
-1.64241e-05
2.50304e-05
-1.18517e-05
2.552e-05
-8.59335e-06
2.59156e-05
-6.25115e-06
2.62226e-05
-4.54309e-06
2.64537e-05
-3.27888e-06
2.66226e-05
-2.3338e-06
2.67424e-05
-1.62626e-06
2.68245e-05
-1.10088e-06
2.68785e-05
-7.1828e-07
2.69123e-05
-4.48196e-07
2.69323e-05
-2.65967e-07
2.69431e-05
-1.50225e-07
2.69491e-05
-7.32409e-08
2.69509e-05
-4.45878e-08
3.02821e-09
3.71312e-05
-4.07816e-05
3.24535e-05
-3.86264e-05
3.12526e-05
-3.05363e-05
3.13514e-05
-2.2939e-05
3.18783e-05
-1.6951e-05
3.24903e-05
-1.24637e-05
3.30542e-05
-9.15734e-06
3.35263e-05
-6.72319e-06
3.39004e-05
-4.91717e-06
3.41856e-05
-3.56408e-06
3.43959e-05
-2.54413e-06
3.45459e-05
-1.77627e-06
3.4649e-05
-1.20403e-06
3.4717e-05
-7.86271e-07
3.47597e-05
-4.9086e-07
3.47849e-05
-2.91202e-07
3.47986e-05
-1.63951e-07
3.48062e-05
-8.08212e-08
3.48085e-05
-4.68896e-08
9.15753e-10
4.9157e-05
-3.16794e-05
4.36775e-05
-3.31469e-05
4.1619e-05
-2.84778e-05
4.12745e-05
-2.25946e-05
4.16416e-05
-1.7318e-05
4.22404e-05
-1.30625e-05
4.28553e-05
-9.77227e-06
4.33984e-05
-7.26626e-06
4.38423e-05
-5.36109e-06
4.41872e-05
-3.90906e-06
4.44448e-05
-2.80168e-06
4.463e-05
-1.96145e-06
4.4758e-05
-1.33205e-06
4.48427e-05
-8.70969e-07
4.4896e-05
-5.44132e-07
4.49275e-05
-3.22756e-07
4.49447e-05
-1.81163e-07
4.49541e-05
-9.02527e-08
4.49571e-05
-4.9864e-08
-1.62191e-09
6.41287e-05
-2.45672e-05
5.84021e-05
-2.74203e-05
5.54789e-05
-2.55546e-05
5.45002e-05
-2.16159e-05
5.45419e-05
-1.73596e-05
5.50238e-05
-1.35444e-05
5.56346e-05
-1.03832e-05
5.6224e-05
-7.85558e-06
5.67293e-05
-5.86638e-06
5.71334e-05
-4.31319e-06
5.74407e-05
-3.10896e-06
5.76643e-05
-2.18508e-06
5.78201e-05
-1.48791e-06
5.79238e-05
-9.74638e-07
5.79892e-05
-6.09565e-07
5.80281e-05
-3.61597e-07
5.80493e-05
-2.02421e-07
5.80608e-05
-1.01803e-07
5.80646e-05
-5.36589e-08
-4.60492e-09
8.28198e-05
-1.91108e-05
7.7396e-05
-2.19965e-05
7.38166e-05
-2.19751e-05
7.20926e-05
-1.9892e-05
7.16226e-05
-1.68896e-05
7.1835e-05
-1.37569e-05
7.23422e-05
-1.08903e-05
7.29203e-05
-8.43368e-06
7.34569e-05
-6.40299e-06
7.3906e-05
-4.7623e-06
7.42574e-05
-3.46028e-06
7.45178e-05
-2.44558e-06
7.47017e-05
-1.67174e-06
7.4825e-05
-1.09793e-06
7.49032e-05
-6.87806e-07
7.49498e-05
-4.08196e-07
7.49754e-05
-2.28031e-07
7.49891e-05
-1.15599e-07
7.49939e-05
-5.83857e-08
-8.00964e-09
0.000106418
-1.48423e-05
0.000101632
-1.72101e-05
9.77579e-05
-1.81012e-05
9.53407e-05
-1.74748e-05
9.42221e-05
-1.5771e-05
9.39882e-05
-1.35229e-05
9.42438e-05
-1.1146e-05
9.47068e-05
-8.89665e-06
9.52084e-05
-6.9046e-06
9.56628e-05
-5.21672e-06
9.60356e-05
-3.83307e-06
9.63206e-05
-2.73061e-06
9.65259e-05
-1.87702e-06
9.66655e-05
-1.2375e-06
9.67548e-05
-7.77149e-07
9.68083e-05
-4.61697e-07
9.68378e-05
-2.57586e-07
9.68536e-05
-1.31398e-07
9.68592e-05
-6.40165e-08
-1.1735e-08
0.000136564
0.000132457
0.000128634
0.00012575
0.000123987
0.000123174
0.000123007
0.000123201
0.00012355
0.000123928
0.000124269
0.000124545
0.000124752
0.000124896
0.000124989
0.000125046
0.000125077
0.000125094
0.0001251
8.99369e-07
-8.99369e-07
1.64299e-06
-7.43617e-07
2.15986e-06
-5.16875e-07
2.49595e-06
-3.36089e-07
2.71334e-06
-2.17395e-07
2.857e-06
-1.43657e-07
2.95455e-06
-9.75499e-08
3.02232e-06
-6.77654e-08
3.07005e-06
-4.77318e-08
3.10378e-06
-3.37378e-08
3.12747e-06
-2.36837e-08
3.14382e-06
-1.63507e-08
3.15482e-06
-1.10004e-08
3.16197e-06
-7.14662e-09
3.16641e-06
-4.44137e-09
3.16902e-06
-2.61059e-09
3.17044e-06
-1.41938e-09
3.17121e-06
-7.73145e-10
3.17145e-06
-2.46089e-10
-2.08597e-10
1.09164e-06
-1.99101e-06
1.99394e-06
-1.64592e-06
2.62099e-06
-1.14393e-06
3.02871e-06
-7.43806e-07
3.29244e-06
-4.8113e-07
3.46673e-06
-3.17945e-07
3.58509e-06
-2.15905e-07
3.66731e-06
-1.49986e-07
3.72522e-06
-1.05647e-07
3.76616e-06
-7.46739e-08
3.79489e-06
-5.24207e-08
3.81473e-06
-3.61904e-08
3.82808e-06
-2.43481e-08
3.83675e-06
-1.58185e-08
3.84214e-06
-9.83161e-09
3.84531e-06
-5.77927e-09
3.84703e-06
-3.14155e-09
3.84797e-06
-1.71311e-09
3.84826e-06
-5.42495e-10
-4.61718e-10
1.32572e-06
-3.31673e-06
2.42054e-06
-2.74074e-06
3.181e-06
-1.90439e-06
3.67541e-06
-1.23822e-06
3.99525e-06
-8.00974e-07
4.20665e-06
-5.29341e-07
4.35022e-06
-3.59475e-07
4.44996e-06
-2.49732e-07
4.52022e-06
-1.75909e-07
4.56989e-06
-1.2434e-07
4.60476e-06
-8.72868e-08
4.62883e-06
-6.02618e-08
4.64502e-06
-4.0543e-08
4.65554e-06
-2.63403e-08
4.66208e-06
-1.63717e-08
4.66592e-06
-9.62395e-09
4.66801e-06
-5.2311e-09
4.66915e-06
-2.85363e-09
4.66951e-06
-9.02096e-10
-7.68887e-10
1.61138e-06
-4.92811e-06
2.93974e-06
-4.0691e-06
3.86148e-06
-2.82612e-06
4.46063e-06
-1.83736e-06
4.8483e-06
-1.18865e-06
5.1046e-06
-7.85638e-07
5.2787e-06
-5.33579e-07
5.39968e-06
-3.70711e-07
5.48491e-06
-2.61139e-07
5.54516e-06
-1.8459e-07
5.58745e-06
-1.29585e-07
5.61666e-06
-8.94653e-08
5.63631e-06
-6.01912e-08
5.64907e-06
-3.91057e-08
5.657e-06
-2.43066e-08
5.66167e-06
-1.42885e-08
5.6642e-06
-7.76624e-09
5.66558e-06
-4.23744e-09
5.66602e-06
-1.33829e-09
-1.14168e-09
1.96126e-06
-6.88937e-06
3.57289e-06
-5.68073e-06
4.68911e-06
-3.94235e-06
5.41443e-06
-2.56268e-06
5.88391e-06
-1.65813e-06
6.19444e-06
-1.09617e-06
6.40547e-06
-7.4461e-07
6.55215e-06
-5.17393e-07
6.6555e-06
-3.64497e-07
6.72858e-06
-2.57664e-07
6.77988e-06
-1.80891e-07
6.81531e-06
-1.2489e-07
6.83914e-06
-8.4026e-08
6.85463e-06
-5.45917e-08
6.86425e-06
-3.39326e-08
6.86991e-06
-1.99474e-08
6.87298e-06
-1.08417e-08
6.87465e-06
-5.91636e-09
6.87519e-06
-1.86724e-09
-1.59419e-09
2.39221e-06
-9.28158e-06
4.34727e-06
-7.6358e-06
5.69713e-06
-5.29221e-06
6.57376e-06
-3.43932e-06
7.14152e-06
-2.22589e-06
7.51736e-06
-1.47201e-06
7.77296e-06
-1.00021e-06
7.95071e-06
-6.95141e-07
8.076e-06
-4.89788e-07
8.1646e-06
-3.46265e-07
8.22681e-06
-2.43108e-07
8.26977e-06
-1.67852e-07
8.29868e-06
-1.12934e-07
8.31746e-06
-7.33745e-08
8.32913e-06
-4.56083e-08
8.336e-06
-2.68113e-08
8.33972e-06
-1.45719e-08
8.34175e-06
-7.95315e-09
8.3424e-06
-2.50839e-09
-2.14358e-09
2.92748e-06
-1.22091e-05
5.29861e-06
-1.00069e-05
6.92742e-06
-6.92102e-06
7.98425e-06
-4.49615e-06
8.6694e-06
-2.91104e-06
9.12358e-06
-1.92619e-06
9.43279e-06
-1.30942e-06
9.648e-06
-9.10354e-07
9.79979e-06
-6.41571e-07
9.90716e-06
-4.5364e-07
9.98258e-06
-3.18526e-07
1.00347e-05
-2.19938e-07
1.00697e-05
-1.47985e-07
1.00925e-05
-9.61504e-08
1.01066e-05
-5.97667e-08
1.0115e-05
-3.51351e-08
1.01195e-05
-1.90952e-08
1.01219e-05
-1.04237e-08
1.01227e-05
-3.28504e-09
-2.81087e-09
3.60067e-06
-1.58097e-05
6.47507e-06
-1.28813e-05
8.43369e-06
-8.87965e-06
9.70278e-06
-5.76524e-06
1.05269e-05
-3.73516e-06
1.10744e-05
-2.47367e-06
1.14478e-05
-1.68285e-06
1.1708e-05
-1.17059e-06
1.18917e-05
-8.25273e-07
1.20218e-05
-5.83669e-07
1.21131e-05
-4.09891e-07
1.21762e-05
-2.83054e-07
1.22187e-05
-1.90465e-07
1.22463e-05
-1.23757e-07
1.22635e-05
-7.69294e-08
1.22736e-05
-4.52255e-08
1.22791e-05
-2.4578e-08
1.2282e-05
-1.342e-08
1.2283e-05
-4.22483e-09
-3.62179e-09
4.46297e-06
-2.02727e-05
7.94397e-06
-1.63623e-05
1.02863e-05
-1.12219e-05
1.1801e-05
-7.28002e-06
1.27873e-05
-4.72146e-06
1.34448e-05
-3.13118e-06
1.38946e-05
-2.1326e-06
1.42087e-05
-1.48467e-06
1.44307e-05
-1.04728e-06
1.4588e-05
-7.40958e-07
1.46985e-05
-5.20476e-07
1.4775e-05
-3.59476e-07
1.48264e-05
-2.41915e-07
1.48599e-05
-1.57198e-07
1.48806e-05
-9.7722e-08
1.48929e-05
-5.74511e-08
1.48995e-05
-3.122e-08
1.49031e-05
-1.70525e-08
1.49043e-05
-5.36028e-09
-4.60811e-09
5.59717e-06
-2.58699e-05
9.80347e-06
-2.05686e-05
1.25797e-05
-1.39982e-05
1.43707e-05
-9.07101e-06
1.55421e-05
-5.89288e-06
1.63273e-05
-3.91638e-06
1.68668e-05
-2.67209e-06
1.72447e-05
-1.8626e-06
1.75124e-05
-1.315e-06
1.77024e-05
-9.30897e-07
1.7836e-05
-6.54139e-07
1.79285e-05
-4.51904e-07
1.79907e-05
-3.04165e-07
1.80312e-05
-1.9767e-07
1.80563e-05
-1.22891e-07
1.80711e-05
-7.22516e-08
1.80792e-05
-3.92589e-08
1.80836e-05
-2.14544e-08
1.80849e-05
-6.72884e-09
-5.80933e-09
7.14648e-06
-3.30163e-05
1.22032e-05
-2.56254e-05
1.54451e-05
-1.724e-05
1.75313e-05
-1.11572e-05
1.89063e-05
-7.26787e-06
1.9836e-05
-4.84607e-06
2.04792e-05
-3.31527e-06
2.09319e-05
-2.31537e-06
2.12537e-05
-1.63678e-06
2.14825e-05
-1.15968e-06
2.16437e-05
-8.15365e-07
2.17553e-05
-5.63494e-07
2.18305e-05
-3.79368e-07
2.18794e-05
-2.46584e-07
2.19098e-05
-1.53317e-07
2.19277e-05
-9.01475e-08
2.19374e-05
-4.89754e-08
2.19427e-05
-2.67852e-08
2.19444e-05
-8.37238e-09
-7.27509e-09
9.37777e-06
-4.23941e-05
1.53819e-05
-3.16295e-05
1.90696e-05
-2.09277e-05
2.14418e-05
-1.35294e-05
2.30267e-05
-8.8527e-06
2.41132e-05
-5.93264e-06
2.4873e-05
-4.07504e-06
2.54118e-05
-2.85421e-06
2.57967e-05
-2.02164e-06
2.60712e-05
-1.43421e-06
2.62651e-05
-1.00924e-06
2.63994e-05
-6.97868e-07
2.64901e-05
-4.70011e-07
2.65491e-05
-3.05577e-07
2.65858e-05
-1.90029e-07
2.66074e-05
-1.11747e-07
2.66191e-05
-6.06958e-08
2.66255e-05
-3.32341e-08
2.66275e-05
-1.03352e-08
-9.06884e-09
1.28323e-05
-5.52264e-05
1.97346e-05
-3.85319e-05
2.3727e-05
-2.49201e-05
2.63179e-05
-1.61203e-05
2.80931e-05
-1.06279e-05
2.93381e-05
-7.17765e-06
3.02233e-05
-4.96019e-06
3.08582e-05
-3.48913e-06
3.13151e-05
-2.47855e-06
3.16426e-05
-1.76174e-06
3.18747e-05
-1.24129e-06
3.20358e-05
-8.59047e-07
3.21447e-05
-5.78889e-07
3.22156e-05
-3.76505e-07
3.22598e-05
-2.34195e-07
3.22858e-05
-1.37743e-07
3.22999e-05
-7.47899e-08
3.23076e-05
-4.10241e-08
3.231e-05
-1.2659e-08
-1.12734e-08
1.87231e-05
-7.39495e-05
2.59286e-05
-4.57374e-05
2.98204e-05
-2.88119e-05
3.24553e-05
-1.87552e-05
3.43546e-05
-1.25273e-05
3.57384e-05
-8.56141e-06
3.67482e-05
-5.97002e-06
3.74853e-05
-4.22618e-06
3.80217e-05
-3.01504e-06
3.84092e-05
-2.14917e-06
3.8685e-05
-1.51712e-06
3.88772e-05
-1.05124e-06
3.90073e-05
-7.08997e-07
3.90922e-05
-4.61384e-07
3.91451e-05
-2.871e-07
3.91762e-05
-1.68905e-07
3.91931e-05
-9.16599e-08
3.92024e-05
-5.04136e-08
3.92052e-05
-1.53729e-08
-1.40004e-08
3.01113e-05
3.50508e-05
3.7922e-05
4.02571e-05
4.21398e-05
4.36063e-05
4.47222e-05
4.55587e-05
4.61782e-05
4.66307e-05
4.69551e-05
4.71823e-05
4.73365e-05
4.74374e-05
4.75003e-05
4.75374e-05
4.75575e-05
4.75687e-05
4.75718e-05
)
;

boundaryField
{
    inlet
    {
        type            calculated;
        value           nonuniform List<scalar> 
20
(
-1.40747e-05
-1.81781e-05
-2.34779e-05
-3.03229e-05
-3.91636e-05
-5.05817e-05
-6.53288e-05
-8.43754e-05
-0.000108975
-0.000140747
-0.00042224
-0.000326925
-0.000253126
-0.000195986
-0.000151745
-0.000117491
-9.09688e-05
-7.04338e-05
-5.45344e-05
-4.2224e-05
)
;
    }
    outlet
    {
        type            calculated;
        value           nonuniform List<scalar> 
35
(
3.17166e-06
3.84852e-06
4.66982e-06
5.66639e-06
6.87564e-06
8.34294e-06
1.01234e-05
1.22838e-05
1.49052e-05
1.80861e-05
2.19458e-05
2.66293e-05
3.23122e-05
3.92079e-05
4.75752e-05
1.25103e-05
1.61577e-05
2.08684e-05
2.69526e-05
3.48106e-05
4.49596e-05
5.80676e-05
7.49973e-05
9.68629e-05
0.000125104
0.000375317
0.000290602
0.000225006
0.000174216
0.00013489
0.000104441
8.08652e-05
6.2611e-05
4.84775e-05
3.75343e-05
)
;
    }
    frontAndBack
    {
        type            empty;
        value           nonuniform 0();
    }
    noslipwall
    {
        type            calculated;
        value           uniform 0;
    }
}


// ************************************************************************* //
