/*--------------------------------*- C++ -*----------------------------------*\
  =========                 |
  \\      /  F ield         | OpenFOAM: The Open Source CFD Toolbox
   \\    /   O peration     | Website:  https://openfoam.org
    \\  /    A nd           | Version:  7
     \\/     M anipulation  |
\*---------------------------------------------------------------------------*/
FoamFile
{
    version     2.0;
    format      ascii;
    class       volVectorField;
    location    "0";
    object      U;
}
// * * * * * * * * * * * * * * * * * * * * * * * * * * * * * * * * * * * * * //

dimensions      [0 1 -1 0 0 0 0];

internalField   nonuniform List<vector> 
900
(
(36.61 6.42587e-09 0)
(36.61 -1.0699e-07 0)
(36.611 -3.82228e-06 0)
(36.6221 -6.91955e-05 0)
(36.6911 -0.000610257 0)
(36.9426 -0.00309487 0)
(37.5856 -0.0111652 0)
(38.9585 -0.0353293 0)
(41.9708 -0.123598 0)
(52.0279 -0.727797 0)
(36.61 1.35302e-08 0)
(36.61 -3.39465e-07 0)
(36.611 -1.25941e-05 0)
(36.6221 -0.000227712 0)
(36.6911 -0.00200829 0)
(36.9424 -0.0101839 0)
(37.5846 -0.0367299 0)
(38.953 -0.116097 0)
(41.9164 -0.403393 0)
(50.0854 -2.17813 0)
(36.61 1.50921e-08 0)
(36.61 -6.26818e-07 0)
(36.6109 -2.3928e-05 0)
(36.6221 -0.00043224 0)
(36.6909 -0.00381193 0)
(36.9417 -0.0193254 0)
(37.5816 -0.0696474 0)
(38.9368 -0.219503 0)
(41.7783 -0.750404 0)
(48.0093 -3.55542 0)
(36.61 1.71317e-08 0)
(36.61 -9.97175e-07 0)
(36.6109 -3.85344e-05 0)
(36.6221 -0.000695796 0)
(36.6907 -0.00613528 0)
(36.9403 -0.0310878 0)
(37.575 -0.111855 0)
(38.9019 -0.350356 0)
(41.5245 -1.16284 0)
(45.8864 -4.72629 0)
(36.61 1.97957e-08 0)
(36.61 -1.47345e-06 0)
(36.6109 -5.73148e-05 0)
(36.622 -0.0010346 0)
(36.6901 -0.00911974 0)
(36.9375 -0.0461626 0)
(37.562 -0.165565 0)
(38.836 -0.512638 0)
(41.1275 -1.62351 0)
(43.8209 -5.55783 0)
(36.61 2.32895e-08 0)
(36.61 -2.0835e-06 0)
(36.6109 -8.13626e-05 0)
(36.6218 -0.00146825 0)
(36.6891 -0.0129343 0)
(36.9322 -0.0653466 0)
(37.5381 -0.233012 0)
(38.7231 -0.707321 0)
(40.575 -2.09358 0)
(41.9144 -5.95612 0)
(36.61 2.79366e-08 0)
(36.61 -2.85944e-06 0)
(36.6109 -0.000111931 0)
(36.6216 -0.00201908 0)
(36.6873 -0.0177672 0)
(36.9228 -0.0894587 0)
(37.4967 -0.315806 0)
(38.5448 -0.928841 0)
(39.8812 -2.51198 0)
(40.2434 -5.9032 0)
(36.61 3.42476e-08 0)
(36.61 -3.83422e-06 0)
(36.6109 -0.000150291 0)
(36.6212 -0.00270938 0)
(36.6842 -0.0237957 0)
(36.9067 -0.119115 0)
(37.4286 -0.413622 0)
(38.2855 -1.16081 0)
(39.0909 -2.80616 0)
(38.8474 -5.46905 0)
(36.61 4.30886e-08 0)
(36.61 -5.03203e-06 0)
(36.6108 -0.000197332 0)
(36.6205 -0.00355391 0)
(36.6788 -0.0311107 0)
(36.8798 -0.154227 0)
(37.3226 -0.521974 0)
(37.9405 -1.37341 0)
(38.2729 -2.91562 0)
(37.7319 -4.78396 0)
(36.61 5.60183e-08 0)
(36.61 -6.44559e-06 0)
(36.6107 -0.000252627 0)
(36.6192 -0.00454248 0)
(36.6699 -0.0395494 0)
(36.8371 -0.19303 0)
(37.1685 -0.629214 0)
(37.5227 -1.52664 0)
(37.5033 -2.81972 0)
(36.8843 -3.98401 0)
(36.61 1.96674e-07 0)
(36.61 -8.85665e-06 0)
(36.6105 -0.000338681 0)
(36.6158 -0.00605821 0)
(36.6454 -0.0517189 0)
(36.7247 -0.239247 0)
(36.8057 -0.700274 0)
(36.722 -1.45634 0)
(36.3641 -2.28189 0)
(35.8537 -2.85035 0)
(36.61 2.77318e-07 0)
(36.61 -1.03895e-05 0)
(36.61 -0.000393644 0)
(36.6096 -0.00699564 0)
(36.6051 -0.0584232 0)
(36.5722 -0.254784 0)
(36.4436 -0.662512 0)
(36.1604 -1.16653 0)
(35.7723 -1.56139 0)
(35.4002 -1.77466 0)
(36.61 1.90776e-07 0)
(36.61 -9.49864e-06 0)
(36.6096 -0.000363956 0)
(36.605 -0.00643304 0)
(36.5766 -0.0528916 0)
(36.4755 -0.221841 0)
(36.2476 -0.537746 0)
(35.9043 -0.870875 0)
(35.5367 -1.09381 0)
(35.2305 -1.20417 0)
(36.61 1.33147e-07 0)
(36.61 -7.78584e-06 0)
(36.6094 -0.000300284 0)
(36.602 -0.00528915 0)
(36.5586 -0.0430629 0)
(36.4181 -0.176403 0)
(36.1412 -0.410701 0)
(35.7773 -0.636613 0)
(35.4274 -0.776423 0)
(35.1537 -0.84323 0)
(36.61 9.31593e-08 0)
(36.61 -5.94764e-06 0)
(36.6092 -0.000230746 0)
(36.6002 -0.00405547 0)
(36.548 -0.0328284 0)
(36.3853 -0.132649 0)
(36.0832 -0.301886 0)
(35.7114 -0.457108 0)
(35.3725 -0.549397 0)
(35.1156 -0.59279 0)
(36.61 6.42819e-08 0)
(36.61 -4.28623e-06 0)
(36.6091 -0.000167541 0)
(36.5992 -0.00294042 0)
(36.5419 -0.023725 0)
(36.3671 -0.0951318 0)
(36.0518 -0.213803 0)
(35.6767 -0.3197 0)
(35.3441 -0.381362 0)
(35.096 -0.410127 0)
(36.61 4.27852e-08 0)
(36.61 -2.89511e-06 0)
(36.6091 -0.000114509 0)
(36.5986 -0.00200745 0)
(36.5387 -0.0161694 0)
(36.3574 -0.0645676 0)
(36.0354 -0.144142 0)
(35.6587 -0.214121 0)
(35.3296 -0.254432 0)
(35.086 -0.273163 0)
(36.61 2.64646e-08 0)
(36.61 -1.77448e-06 0)
(36.6091 -7.176e-05 0)
(36.5983 -0.00125642 0)
(36.537 -0.0101119 0)
(36.3525 -0.0402937 0)
(36.0272 -0.0896481 0)
(35.6498 -0.132733 0)
(35.3224 -0.157418 0)
(35.0811 -0.168867 0)
(36.61 1.39261e-08 0)
(36.61 -8.90073e-07 0)
(36.6091 -3.80197e-05 0)
(36.5982 -0.000664044 0)
(36.5363 -0.00534334 0)
(36.3503 -0.0212709 0)
(36.0235 -0.047252 0)
(35.6458 -0.0698561 0)
(35.3192 -0.0827759 0)
(35.0789 -0.0887627 0)
(36.61 4.23162e-09 0)
(36.61 -2.50826e-07 0)
(36.6091 -1.16013e-05 0)
(36.5982 -0.000201976 0)
(36.536 -0.00162549 0)
(36.3496 -0.00646828 0)
(36.0222 -0.0143609 0)
(35.6445 -0.0212191 0)
(35.3181 -0.0251356 0)
(35.0781 -0.0269499 0)
(35.379 -3.10575 0)
(34.9192 -3.20283 0)
(34.4077 -3.1507 0)
(33.8935 -2.9389 0)
(33.4287 -2.59915 0)
(33.052 -2.1865 0)
(32.7792 -1.75714 0)
(32.6053 -1.35427 0)
(32.511 -1.00376 0)
(32.4724 -0.716292 0)
(32.4673 -0.491901 0)
(32.4786 -0.324405 0)
(32.4951 -0.204736 0)
(32.5107 -0.123073 0)
(32.523 -0.0700756 0)
(32.5313 -0.0375622 0)
(32.5365 -0.0188162 0)
(32.5394 -0.00866739 0)
(32.5407 -0.00362447 0)
(32.5413 -0.000793724 0)
(35.1084 -1.86631 0)
(34.8407 -1.90748 0)
(34.5392 -1.90361 0)
(34.2164 -1.84234 0)
(33.8905 -1.71959 0)
(33.5821 -1.5418 0)
(33.3089 -1.32461 0)
(33.0826 -1.08881 0)
(32.9069 -0.855437 0)
(32.7784 -0.641765 0)
(32.6895 -0.459152 0)
(32.631 -0.312683 0)
(32.594 -0.202144 0)
(32.5714 -0.123626 0)
(32.5581 -0.0712173 0)
(32.5504 -0.0384493 0)
(32.5462 -0.0193288 0)
(32.544 -0.00893521 0)
(32.5429 -0.00368022 0)
(32.5424 -0.000889892 0)
(35.0051 -1.25132 0)
(34.8029 -1.27383 0)
(34.5751 -1.2753 0)
(34.3259 -1.24852 0)
(34.0638 -1.18833 0)
(33.7998 -1.09358 0)
(33.5466 -0.968367 0)
(33.316 -0.821761 0)
(33.1164 -0.666056 0)
(32.9522 -0.514172 0)
(32.8237 -0.37708 0)
(32.7277 -0.262054 0)
(32.6592 -0.172106 0)
(32.6126 -0.106485 0)
(32.5824 -0.0618404 0)
(32.5638 -0.0335606 0)
(32.5531 -0.0169214 0)
(32.5473 -0.0078367 0)
(32.5444 -0.00321777 0)
(32.5432 -0.000796932 0)
(34.9578 -0.871769 0)
(34.784 -0.885765 0)
(34.5882 -0.887654 0)
(34.3723 -0.872978 0)
(34.1411 -0.8379 0)
(33.9015 -0.780393 0)
(33.6629 -0.701336 0)
(33.4355 -0.605023 0)
(33.2286 -0.498705 0)
(33.0492 -0.391206 0)
(32.9013 -0.291041 0)
(32.7853 -0.204714 0)
(32.699 -0.135739 0)
(32.6382 -0.0845876 0)
(32.5977 -0.0493715 0)
(32.5723 -0.0268821 0)
(32.5574 -0.01358 0)
(32.5494 -0.00629651 0)
(32.5453 -0.00258141 0)
(32.5437 -0.00064729 0)
(34.9342 -0.61134 0)
(34.7741 -0.620557 0)
(34.5938 -0.622112 0)
(34.3945 -0.613101 0)
(34.1789 -0.590836 0)
(33.9525 -0.553568 0)
(33.7228 -0.501279 0)
(33.4986 -0.436217 0)
(33.2893 -0.362865 0)
(33.1029 -0.287195 0)
(32.9451 -0.215402 0)
(32.8184 -0.152564 0)
(32.7222 -0.101724 0)
(32.6532 -0.0636571 0)
(32.6068 -0.0372656 0)
(32.5774 -0.0203304 0)
(32.5601 -0.0102823 0)
(32.5506 -0.00477068 0)
(32.5459 -0.00195473 0)
(32.544 -0.000492877 0)
(34.922 -0.42243 0)
(34.7689 -0.428585 0)
(34.5965 -0.429729 0)
(34.4056 -0.423938 0)
(34.1982 -0.40937 0)
(33.9789 -0.384722 0)
(33.7541 -0.349766 0)
(33.532 -0.305781 0)
(33.3219 -0.255622 0)
(33.1321 -0.203305 0)
(32.9692 -0.153168 0)
(32.8368 -0.108905 0)
(32.7352 -0.0728407 0)
(32.6617 -0.0456904 0)
(32.6119 -0.0267928 0)
(32.5803 -0.0146332 0)
(32.5616 -0.00740583 0)
(32.5513 -0.00343738 0)
(32.5462 -0.00140807 0)
(32.5442 -0.000355993 0)
(34.9158 -0.281177 0)
(34.7662 -0.2852 0)
(34.5978 -0.285983 0)
(34.4112 -0.282274 0)
(34.2081 -0.272855 0)
(33.9924 -0.256828 0)
(33.7702 -0.233974 0)
(33.5494 -0.205046 0)
(33.339 -0.171858 0)
(33.1475 -0.13704 0)
(32.982 -0.103492 0)
(32.8466 -0.0737373 0)
(32.7421 -0.049402 0)
(32.6663 -0.0310278 0)
(32.6147 -0.0182112 0)
(32.5818 -0.00995233 0)
(32.5624 -0.00503867 0)
(32.5517 -0.00233913 0)
(32.5464 -0.000958065 0)
(32.5443 -0.000242539 0)
(34.9127 -0.173766 0)
(34.7648 -0.176229 0)
(34.5985 -0.17672 0)
(34.4139 -0.174472 0)
(34.2129 -0.168735 0)
(33.9991 -0.158948 0)
(33.7782 -0.144952 0)
(33.5581 -0.127184 0)
(33.3475 -0.106739 0)
(33.1552 -0.0852247 0)
(32.9884 -0.0644397 0)
(32.8516 -0.0459609 0)
(32.7456 -0.0308189 0)
(32.6686 -0.0193689 0)
(32.6161 -0.0113735 0)
(32.5826 -0.00621749 0)
(32.5628 -0.00314837 0)
(32.5519 -0.00146171 0)
(32.5465 -0.000598632 0)
(32.5443 -0.000151634 0)
(34.9113 -0.0913245 0)
(34.7642 -0.092614 0)
(34.5988 -0.0928732 0)
(34.4151 -0.0917022 0)
(34.215 -0.0887073 0)
(34.002 -0.0835911 0)
(33.7818 -0.076266 0)
(33.5619 -0.0669546 0)
(33.3513 -0.0562247 0)
(33.1587 -0.044919 0)
(32.9913 -0.0339828 0)
(32.8538 -0.0242495 0)
(32.7472 -0.0162668 0)
(32.6696 -0.0102263 0)
(32.6167 -0.00600621 0)
(32.583 -0.00328384 0)
(32.563 -0.00166297 0)
(32.552 -0.000772074 0)
(32.5466 -0.000316151 0)
(32.5444 -8.00903e-05 0)
(34.9109 -0.0277263 0)
(34.764 -0.0281172 0)
(34.5988 -0.028196 0)
(34.4155 -0.0278416 0)
(34.2158 -0.0269346 0)
(34.003 -0.0253844 0)
(33.783 -0.0231638 0)
(33.5632 -0.0203398 0)
(33.3526 -0.0170839 0)
(33.1598 -0.0136516 0)
(32.9923 -0.0103301 0)
(32.8545 -0.00737263 0)
(32.7477 -0.00494633 0)
(32.67 -0.00310992 0)
(32.6169 -0.00182667 0)
(32.5831 -0.000998765 0)
(32.563 -0.000505794 0)
(32.552 -0.000234814 0)
(32.5466 -9.6135e-05 0)
(32.5444 -2.43502e-05 0)
(43.4103 -34.0814 0)
(26.3505 -15.7907 0)
(26.3451 -8.93146 0)
(27.4001 -5.35543 0)
(28.5244 -3.29174 0)
(29.51 -2.05885 0)
(30.3096 -1.30657 0)
(30.9327 -0.837895 0)
(31.4062 -0.539672 0)
(31.7591 -0.346472 0)
(32.017 -0.219919 0)
(32.201 -0.136884 0)
(32.3287 -0.0828639 0)
(32.4143 -0.0483801 0)
(32.4693 -0.0270197 0)
(32.503 -0.0143041 0)
(32.5222 -0.00719667 0)
(32.5327 -0.00323546 0)
(32.5376 -0.00156009 0)
(32.5398 -0.000134385 0)
(42.6887 -29.5145 0)
(27.9613 -15.5464 0)
(26.9931 -9.01518 0)
(27.7169 -5.4726 0)
(28.6912 -3.39301 0)
(29.6004 -2.1357 0)
(30.3596 -1.36152 0)
(30.9609 -0.875917 0)
(31.4224 -0.565385 0)
(31.7686 -0.363508 0)
(32.0225 -0.230956 0)
(32.2042 -0.143852 0)
(32.3305 -0.0871203 0)
(32.4153 -0.0508833 0)
(32.4699 -0.0284318 0)
(32.5033 -0.0150935 0)
(32.5223 -0.00763986 0)
(32.5328 -0.00335227 0)
(32.5376 -0.00179862 0)
(32.5398 5.74747e-05 0)
(41.8452 -24.8316 0)
(29.6003 -15.0013 0)
(27.7887 -9.04334 0)
(28.1228 -5.59148 0)
(28.909 -3.50897 0)
(29.72 -2.22787 0)
(30.4263 -1.42907 0)
(30.9988 -0.923338 0)
(31.4444 -0.597746 0)
(31.7815 -0.385073 0)
(32.0301 -0.24498 0)
(32.2087 -0.152725 0)
(32.3331 -0.0925502 0)
(32.4168 -0.0540793 0)
(32.4707 -0.0302334 0)
(32.5037 -0.0160894 0)
(32.5226 -0.00818345 0)
(32.5329 -0.00351926 0)
(32.5377 -0.00205029 0)
(32.5398 0.000238002 0)
(40.8975 -20.2914 0)
(31.16 -14.0928 0)
(28.7274 -8.9672 0)
(28.6341 -5.69413 0)
(29.1916 -3.63448 0)
(29.878 -2.33509 0)
(30.5157 -1.51048 0)
(31.05 -0.981676 0)
(31.4742 -0.638064 0)
(31.799 -0.412154 0)
(32.0405 -0.262683 0)
(32.2148 -0.16396 0)
(32.3367 -0.0994399 0)
(32.4188 -0.0581367 0)
(32.4718 -0.0325107 0)
(32.5042 -0.0172952 0)
(32.5229 -0.00876947 0)
(32.533 -0.00381209 0)
(32.5377 -0.00212638 0)
(32.5398 0.000169784 0)
(39.8859 -16.1601 0)
(32.5238 -12.8108 0)
(29.7762 -8.72772 0)
(29.261 -5.75092 0)
(29.5534 -3.75801 0)
(30.0857 -2.45407 0)
(30.6354 -1.60579 0)
(31.1196 -1.05203 0)
(31.5151 -0.687567 0)
(31.8233 -0.445785 0)
(32.0549 -0.28483 0)
(32.2233 -0.178082 0)
(32.3416 -0.108129 0)
(32.4216 -0.063265 0)
(32.4733 -0.035393 0)
(32.5051 -0.0188227 0)
(32.5233 -0.00951341 0)
(32.5332 -0.00418146 0)
(32.5378 -0.00222544 0)
(32.5399 8.60009e-05 0)
(38.8728 -12.6405 0)
(33.5959 -11.2226 0)
(30.868 -8.27092 0)
(29.9983 -5.72005 0)
(30.0065 -3.85866 0)
(30.356 -2.57627 0)
(30.7952 -1.71244 0)
(31.2143 -1.13434 0)
(31.5715 -0.747019 0)
(31.857 -0.486838 0)
(32.075 -0.31215 0)
(32.2352 -0.195626 0)
(32.3486 -0.118974 0)
(32.4256 -0.0696855 0)
(32.4755 -0.0390088 0)
(32.5062 -0.0207412 0)
(32.5238 -0.0104502 0)
(32.5335 -0.00464319 0)
(32.5379 -0.00235379 0)
(32.5399 -1.53985e-05 0)
(37.9303 -9.812 0)
(34.3329 -9.47037 0)
(31.9092 -7.57273 0)
(30.8159 -5.55383 0)
(30.5534 -3.90468 0)
(30.7001 -2.68535 0)
(31.0063 -1.82333 0)
(31.3426 -1.22616 0)
(31.6493 -0.816007 0)
(31.9041 -0.535639 0)
(32.1034 -0.345131 0)
(32.2522 -0.217022 0)
(32.3585 -0.132291 0)
(32.4312 -0.0776062 0)
(32.4786 -0.0434828 0)
(32.5078 -0.0231193 0)
(32.5247 -0.0116151 0)
(32.5338 -0.00521267 0)
(32.5381 -0.00251848 0)
(32.54 -0.000135781 0)
(37.1188 -7.61946 0)
(34.7584 -7.72688 0)
(32.8051 -6.66137 0)
(31.6546 -5.21432 0)
(31.1786 -3.85644 0)
(31.1227 -2.75542 0)
(31.2789 -1.92448 0)
(31.5143 -1.32082 0)
(31.7561 -0.891733 0)
(31.97 -0.591223 0)
(32.1436 -0.383588 0)
(32.2764 -0.24236 0)
(32.3728 -0.148227 0)
(32.4394 -0.0871498 0)
(32.4831 -0.0488979 0)
(32.5102 -0.0260057 0)
(32.5258 -0.0130343 0)
(32.5344 -0.00590062 0)
(32.5384 -0.00272579 0)
(32.5402 -0.00027507 0)
(36.4681 -5.92298 0)
(34.9471 -6.13041 0)
(33.4924 -5.61677 0)
(32.4356 -4.6941 0)
(31.8417 -3.67757 0)
(31.6145 -2.75325 0)
(31.6181 -1.99348 0)
(31.7389 -1.40524 0)
(31.9009 -0.967189 0)
(32.0615 -0.650083 0)
(32.2004 -0.42587 0)
(32.3109 -0.270912 0)
(32.3933 -0.166481 0)
(32.4512 -0.0982029 0)
(32.4896 -0.0552141 0)
(32.5136 -0.0293874 0)
(32.5276 -0.0147048 0)
(32.5352 -0.00670385 0)
(32.5388 -0.00297777 0)
(32.5404 -0.000430546 0)
(35.977 -4.56808 0)
(34.9879 -4.73984 0)
(33.9565 -4.53797 0)
(33.0842 -4.02815 0)
(32.4798 -3.35315 0)
(32.1449 -2.64764 0)
(32.0175 -2.0015 0)
(32.021 -1.45849 0)
(32.0916 -1.029 0)
(32.1861 -0.70431 0)
(32.2796 -0.467547 0)
(32.3599 -0.30029 0)
(32.4227 -0.185802 0)
(32.4683 -0.110122 0)
(32.4991 -0.0621081 0)
(32.5187 -0.0331059 0)
(32.5301 -0.0165525 0)
(32.5364 -0.00758666 0)
(32.5393 -0.0032641 0)
(32.5406 -0.000592892 0)
(4.61368 -0.156891 0)
(13.0421 -0.116273 0)
(19.5083 -0.0724409 0)
(23.8839 -0.0422204 0)
(26.7232 -0.0244785 0)
(28.5754 -0.0144988 0)
(29.8127 -0.00882472 0)
(30.6608 -0.0054948 0)
(31.2533 -0.00346912 0)
(31.6712 -0.00219785 0)
(31.9658 -0.00138293 0)
(32.1711 -0.000855769 0)
(32.3115 -0.000516054 0)
(32.4045 -0.000300509 0)
(32.464 -0.000167395 0)
(32.5002 -8.81928e-05 0)
(32.5208 -4.29797e-05 0)
(32.5321 -2.09843e-05 0)
(32.5373 -5.98678e-06 0)
(32.5396 -4.5486e-06 0)
(4.61513 -0.504215 0)
(13.0449 -0.373631 0)
(19.5105 -0.232764 0)
(23.8852 -0.135659 0)
(26.7239 -0.0786535 0)
(28.5757 -0.0465879 0)
(29.8129 -0.0283563 0)
(30.6609 -0.0176565 0)
(31.2533 -0.0111475 0)
(31.6712 -0.00706248 0)
(31.9658 -0.00444385 0)
(32.1712 -0.00274991 0)
(32.3115 -0.00165828 0)
(32.4045 -0.000965662 0)
(32.464 -0.000537948 0)
(32.5002 -0.000283432 0)
(32.5208 -0.000138108 0)
(32.5321 -6.74805e-05 0)
(32.5373 -1.91845e-05 0)
(32.5396 -1.46167e-05 0)
(4.61901 -0.925914 0)
(13.0525 -0.685903 0)
(19.5166 -0.427227 0)
(23.8888 -0.248987 0)
(26.7257 -0.144364 0)
(28.5766 -0.0855136 0)
(29.8134 -0.0520509 0)
(30.6611 -0.0324113 0)
(31.2535 -0.0204634 0)
(31.6713 -0.0129647 0)
(31.9658 -0.00815774 0)
(32.1712 -0.00504814 0)
(32.3115 -0.0030442 0)
(32.4046 -0.00177274 0)
(32.464 -0.000987604 0)
(32.5002 -0.000520363 0)
(32.5208 -0.000253528 0)
(32.5321 -0.000123948 0)
(32.5373 -3.51436e-05 0)
(32.5396 -2.68342e-05 0)
(4.62687 -1.43828 0)
(13.068 -1.0648 0)
(19.5289 -0.662989 0)
(23.8959 -0.386362 0)
(26.7294 -0.224031 0)
(28.5785 -0.132716 0)
(29.8144 -0.0807889 0)
(30.6617 -0.0503089 0)
(31.2538 -0.0317645 0)
(31.6715 -0.0201252 0)
(31.9659 -0.0126635 0)
(32.1712 -0.00783646 0)
(32.3115 -0.00472569 0)
(32.4046 -0.00275195 0)
(32.464 -0.00153317 0)
(32.5002 -0.00080783 0)
(32.5208 -0.000393566 0)
(32.5321 -0.000192462 0)
(32.5373 -5.45035e-05 0)
(32.5396 -4.16613e-05 0)
(4.64107 -2.06151 0)
(13.0959 -1.5245 0)
(19.551 -0.948613 0)
(23.9088 -0.552745 0)
(26.7361 -0.320546 0)
(28.5819 -0.189924 0)
(29.8161 -0.11563 0)
(30.6626 -0.0720124 0)
(31.2543 -0.045471 0)
(31.6718 -0.0288106 0)
(31.9661 -0.0181292 0)
(32.1713 -0.011219 0)
(32.3116 -0.00676558 0)
(32.4046 -0.00393989 0)
(32.464 -0.00219503 0)
(32.5002 -0.00115658 0)
(32.5208 -0.000563457 0)
(32.5321 -0.000275589 0)
(32.5373 -7.79832e-05 0)
(32.5396 -5.96576e-05 0)
(4.66526 -2.82095 0)
(13.1433 -2.08219 0)
(19.5885 -1.29424 0)
(23.9306 -0.753986 0)
(26.7474 -0.437338 0)
(28.5876 -0.259197 0)
(29.8191 -0.157843 0)
(30.6642 -0.0983189 0)
(31.2551 -0.0620891 0)
(31.6723 -0.039343 0)
(31.9664 -0.024758 0)
(32.1715 -0.0153216 0)
(32.3117 -0.00923987 0)
(32.4047 -0.00538087 0)
(32.464 -0.00299789 0)
(32.5002 -0.00157964 0)
(32.5208 -0.000769536 0)
(32.5321 -0.000376438 0)
(32.5373 -0.000106449 0)
(32.5396 -8.15048e-05 0)
(4.70505 -3.74895 0)
(13.221 -2.75864 0)
(19.6497 -1.71171 0)
(23.9661 -0.996873 0)
(26.7658 -0.578415 0)
(28.5969 -0.342968 0)
(29.8239 -0.208938 0)
(30.6667 -0.130182 0)
(31.2565 -0.0822267 0)
(31.6731 -0.0521098 0)
(31.9668 -0.0327947 0)
(32.1718 -0.0202963 0)
(32.3118 -0.0122403 0)
(32.4047 -0.00712837 0)
(32.4641 -0.00397158 0)
(32.5002 -0.00209272 0)
(32.5209 -0.00101946 0)
(32.5321 -0.000498775 0)
(32.5373 -0.000140941 0)
(32.5396 -0.000108035 0)
(4.76922 -4.88776 0)
(13.3457 -3.57884 0)
(19.7472 -2.21449 0)
(24.0224 -1.28906 0)
(26.795 -0.748358 0)
(28.6117 -0.444062 0)
(29.8315 -0.270692 0)
(30.6708 -0.168735 0)
(31.2588 -0.10661 0)
(31.6743 -0.0675755 0)
(31.9676 -0.0425334 0)
(32.1722 -0.0263257 0)
(32.312 -0.0158775 0)
(32.4049 -0.0092469 0)
(32.4642 -0.00515207 0)
(32.5003 -0.0027148 0)
(32.5209 -0.00132245 0)
(32.5321 -0.000647152 0)
(32.5373 -0.000182698 0)
(32.5396 -0.000140269 0)
(4.87171 -6.29443 0)
(13.5432 -4.57258 0)
(19.8999 -2.81727 0)
(24.1102 -1.63878 0)
(26.8403 -0.952211 0)
(28.6347 -0.565678 0)
(29.8433 -0.345159 0)
(30.6771 -0.215303 0)
(31.2623 -0.136096 0)
(31.6763 -0.0862928 0)
(31.9687 -0.0543256 0)
(32.1729 -0.0336289 0)
(32.3124 -0.020284 0)
(32.4051 -0.0118139 0)
(32.4643 -0.00658261 0)
(32.5003 -0.0034687 0)
(32.5209 -0.00168959 0)
(32.5321 -0.000827065 0)
(32.5373 -0.000233184 0)
(32.5396 -0.000179459 0)
(5.03523 -8.04937 0)
(13.8545 -5.77458 0)
(20.136 -3.53464 0)
(24.2447 -2.05406 0)
(26.9097 -1.19517 0)
(28.6698 -0.711286 0)
(29.8615 -0.43465 0)
(30.6868 -0.271415 0)
(31.2677 -0.17169 0)
(31.6794 -0.108913 0)
(31.9705 -0.0685876 0)
(32.1739 -0.0424662 0)
(32.313 -0.025618 0)
(32.4054 -0.0149219 0)
(32.4645 -0.00831488 0)
(32.5004 -0.00438171 0)
(32.5209 -0.00213414 0)
(32.5321 -0.00104513 0)
(32.5373 -0.000294101 0)
(32.5396 -0.00022716 0)
(5.29831 -10.2725 0)
(14.3456 -7.22297 0)
(20.4981 -4.37809 0)
(24.4483 -2.54112 0)
(27.0143 -1.48189 0)
(28.723 -0.884364 0)
(29.8891 -0.541638 0)
(30.7016 -0.338773 0)
(31.2758 -0.214534 0)
(31.684 -0.136191 0)
(31.9732 -0.0858066 0)
(32.1754 -0.0531441 0)
(32.3139 -0.0320662 0)
(32.4059 -0.0186805 0)
(32.4647 -0.0104103 0)
(32.5006 -0.00548629 0)
(32.521 -0.00267178 0)
(32.5322 -0.00130929 0)
(32.5373 -0.000367379 0)
(32.5396 -0.000285315 0)
(5.72978 -13.155 0)
(15.1281 -8.95246 0)
(21.0497 -5.34928 0)
(24.7523 -3.1012 0)
(27.17 -1.81517 0)
(28.8023 -1.08786 0)
(29.9304 -0.668555 0)
(30.7238 -0.419178 0)
(31.2882 -0.265893 0)
(31.691 -0.168979 0)
(31.9772 -0.106541 0)
(32.1778 -0.0660175 0)
(32.3153 -0.0398465 0)
(32.4067 -0.0232179 0)
(32.4652 -0.0129407 0)
(32.5008 -0.00682053 0)
(32.5211 -0.0033209 0)
(32.5322 -0.00162901 0)
(32.5373 -0.000455112 0)
(32.5396 -0.000356391 0)
(6.46155 -17.0295 0)
(16.3987 -10.9705 0)
(21.8846 -6.42566 0)
(25.1995 -3.72467 0)
(27.398 -2.19351 0)
(28.9188 -1.32318 0)
(29.9914 -0.817361 0)
(30.7568 -0.514353 0)
(31.3066 -0.327072 0)
(31.7016 -0.2082 0)
(31.9833 -0.131412 0)
(32.1813 -0.0814862 0)
(32.3173 -0.0492065 0)
(32.4078 -0.0286809 0)
(32.4658 -0.015989 0)
(32.5011 -0.00842845 0)
(32.5213 -0.00410258 0)
(32.5323 -0.00201547 0)
(32.5374 -0.000559396 0)
(32.5397 -0.000443578 0)
(7.76966 -22.5342 0)
(18.5295 -13.1765 0)
(23.1346 -7.53064 0)
(25.843 -4.38115 0)
(27.7247 -2.60726 0)
(29.0871 -1.58849 0)
(30.0804 -0.988787 0)
(30.8053 -0.6256 0)
(31.3337 -0.399272 0)
(31.7171 -0.254776 0)
(31.9924 -0.161068 0)
(32.1866 -0.099981 0)
(32.3203 -0.0604179 0)
(32.4096 -0.0352325 0)
(32.4667 -0.0196476 0)
(32.5016 -0.0103594 0)
(32.5215 -0.00504019 0)
(32.5324 -0.00248175 0)
(32.5374 -0.000681951 0)
(32.5397 -0.000551113 0)
(10.2979 -31.0532 0)
(22.285 -15.0755 0)
(24.9562 -8.47848 0)
(26.7368 -5.00551 0)
(28.1793 -3.03312 0)
(29.3246 -1.87616 0)
(30.2078 -1.18109 0)
(30.8755 -0.7532 0)
(31.3735 -0.483291 0)
(31.7401 -0.309493 0)
(32.0058 -0.196121 0)
(32.1944 -0.121934 0)
(32.3249 -0.0737598 0)
(32.4121 -0.0430432 0)
(32.4681 -0.0240239 0)
(32.5023 -0.012696 0)
(32.5219 -0.00629518 0)
(32.5326 -0.00294651 0)
(32.5375 -0.00114409 0)
(32.5397 -0.000362897 0)
)
;

boundaryField
{
    inlet
    {
        type            fixedValue;
        value           uniform (36.61 0 0);
    }
    outlet
    {
        type            zeroGradient;
    }
    frontAndBack
    {
        type            empty;
    }
    noslipwall
    {
        type            noSlip;
    }
}


// ************************************************************************* //
