/*--------------------------------*- C++ -*----------------------------------*\
  =========                 |
  \\      /  F ield         | OpenFOAM: The Open Source CFD Toolbox
   \\    /   O peration     | Website:  https://openfoam.org
    \\  /    A nd           | Version:  7
     \\/     M anipulation  |
\*---------------------------------------------------------------------------*/
FoamFile
{
    version     2.0;
    format      ascii;
    class       volVectorField;
    location    "0";
    object      U1;
}
// * * * * * * * * * * * * * * * * * * * * * * * * * * * * * * * * * * * * * //

dimensions      [0 1 -1 0 0 0 0];

internalField   nonuniform List<vector> 
900
(
(39.27 6.88854e-09 0)
(39.27 -1.14765e-07 0)
(39.271 -4.1e-06 0)
(39.283 -7.42231e-05 0)
(39.357 -0.000654597 0)
(39.6267 -0.00331974 0)
(40.3165 -0.0119764 0)
(41.7891 -0.0378962 0)
(45.0203 -0.132579 0)
(55.8082 -0.780677 0)
(39.27 1.45119e-08 0)
(39.27 -3.64125e-07 0)
(39.271 -1.35091e-05 0)
(39.283 -0.000244257 0)
(39.3569 -0.00215421 0)
(39.6265 -0.0109239 0)
(40.3154 -0.0393986 0)
(41.7832 -0.124532 0)
(44.9619 -0.432702 0)
(53.7245 -2.33639 0)
(39.27 1.61945e-08 0)
(39.27 -6.72351e-07 0)
(39.271 -2.56665e-05 0)
(39.283 -0.000463646 0)
(39.3568 -0.00408889 0)
(39.6258 -0.0207296 0)
(40.3122 -0.0747078 0)
(41.7659 -0.235452 0)
(44.8138 -0.804926 0)
(51.4975 -3.81374 0)
(39.27 1.83781e-08 0)
(39.27 -1.06961e-06 0)
(39.271 -4.13342e-05 0)
(39.2829 -0.000746351 0)
(39.3565 -0.00658105 0)
(39.6243 -0.0333466 0)
(40.3051 -0.119982 0)
(41.7284 -0.375812 0)
(44.5416 -1.24733 0)
(49.2204 -5.06969 0)
(39.27 2.12309e-08 0)
(39.27 -1.58049e-06 0)
(39.271 -6.14792e-05 0)
(39.2829 -0.00110977 0)
(39.356 -0.00978236 0)
(39.6213 -0.0495167 0)
(40.2911 -0.177595 0)
(41.6578 -0.549885 0)
(44.1157 -1.74147 0)
(47.0048 -5.96165 0)
(39.27 2.49778e-08 0)
(39.27 -2.23486e-06 0)
(39.271 -8.72742e-05 0)
(39.2827 -0.00157493 0)
(39.3549 -0.0138741 0)
(39.6156 -0.0700945 0)
(40.2655 -0.249942 0)
(41.5366 -0.758714 0)
(43.5231 -2.2457 0)
(44.9598 -6.38888 0)
(39.27 2.9959e-08 0)
(39.27 -3.06718e-06 0)
(39.271 -0.000120064 0)
(39.2824 -0.00216578 0)
(39.3529 -0.0190581 0)
(39.6056 -0.0959586 0)
(40.2211 -0.338752 0)
(41.3454 -0.996329 0)
(42.7789 -2.69449 0)
(43.1674 -6.33211 0)
(39.27 3.67281e-08 0)
(39.27 -4.11278e-06 0)
(39.2709 -0.000161211 0)
(39.282 -0.00290624 0)
(39.3495 -0.0255246 0)
(39.5882 -0.12777 0)
(40.148 -0.443675 0)
(41.0673 -1.24515 0)
(41.9312 -3.01005 0)
(41.6699 -5.86641 0)
(39.27 4.62135e-08 0)
(39.27 -5.39762e-06 0)
(39.2709 -0.00021167 0)
(39.2812 -0.00381213 0)
(39.3438 -0.0333712 0)
(39.5595 -0.165433 0)
(40.0344 -0.5599 0)
(40.6972 -1.47319 0)
(41.0538 -3.12746 0)
(40.4734 -5.13155 0)
(39.27 6.00827e-08 0)
(39.27 -6.91388e-06 0)
(39.2708 -0.000270982 0)
(39.2799 -0.00487252 0)
(39.3343 -0.042423 0)
(39.5136 -0.207055 0)
(39.8691 -0.674931 0)
(40.2491 -1.63756 0)
(40.2282 -3.02459 0)
(39.5643 -4.27348 0)
(39.27 2.10961e-07 0)
(39.27 -9.50013e-06 0)
(39.2705 -0.000363289 0)
(39.2762 -0.00649838 0)
(39.308 -0.0554767 0)
(39.393 -0.25663 0)
(39.4799 -0.751155 0)
(39.3901 -1.56215 0)
(39.0063 -2.44769 0)
(38.4587 -3.05745 0)
(39.27 2.97464e-07 0)
(39.27 -1.11444e-05 0)
(39.27 -0.000422246 0)
(39.2696 -0.00750393 0)
(39.2648 -0.0626681 0)
(39.2295 -0.273296 0)
(39.0916 -0.710649 0)
(38.7878 -1.25128 0)
(38.3715 -1.67483 0)
(37.9723 -1.90361 0)
(39.27 2.04634e-07 0)
(39.27 -1.01888e-05 0)
(39.2696 -0.0003904 0)
(39.2647 -0.00690045 0)
(39.2342 -0.0567346 0)
(39.1257 -0.23796 0)
(38.8813 -0.576817 0)
(38.5131 -0.934151 0)
(38.1187 -1.17328 0)
(37.7903 -1.29166 0)
(39.27 1.4282e-07 0)
(39.27 -8.35153e-06 0)
(39.2693 -0.000322102 0)
(39.2614 -0.00567345 0)
(39.2149 -0.0461918 0)
(39.0642 -0.18922 0)
(38.7671 -0.440542 0)
(38.3768 -0.682868 0)
(38.0014 -0.832836 0)
(37.7079 -0.904497 0)
(39.27 9.99278e-08 0)
(39.27 -6.37977e-06 0)
(39.2692 -0.000247511 0)
(39.2595 -0.00435013 0)
(39.2034 -0.0352137 0)
(39.029 -0.142287 0)
(38.7049 -0.323821 0)
(38.3061 -0.490321 0)
(37.9426 -0.589315 0)
(37.667 -0.635861 0)
(39.27 6.89525e-08 0)
(39.27 -4.59764e-06 0)
(39.2691 -0.000179714 0)
(39.2584 -0.00315406 0)
(39.197 -0.0254488 0)
(39.0095 -0.102044 0)
(38.6713 -0.229337 0)
(38.2689 -0.342929 0)
(37.9122 -0.40907 0)
(37.646 -0.439926 0)
(39.27 4.58934e-08 0)
(39.27 -3.10545e-06 0)
(39.269 -0.000122829 0)
(39.2578 -0.00215331 0)
(39.1935 -0.0173442 0)
(38.9991 -0.0692589 0)
(38.6536 -0.154615 0)
(38.2496 -0.229679 0)
(37.8965 -0.272918 0)
(37.6353 -0.293011 0)
(39.27 2.8388e-08 0)
(39.27 -1.90341e-06 0)
(39.269 -7.69739e-05 0)
(39.2575 -0.00134771 0)
(39.1917 -0.0108466 0)
(38.9938 -0.0432214 0)
(38.6448 -0.0961618 0)
(38.24 -0.142377 0)
(37.8888 -0.168856 0)
(37.63 -0.181136 0)
(39.27 1.49386e-08 0)
(39.27 -9.54741e-07 0)
(39.269 -4.07821e-05 0)
(39.2573 -0.000712292 0)
(39.1909 -0.00573157 0)
(38.9915 -0.0228164 0)
(38.6409 -0.0506852 0)
(38.2358 -0.0749317 0)
(37.8854 -0.0887902 0)
(37.6276 -0.095212 0)
(39.27 4.53874e-09 0)
(39.27 -2.69051e-07 0)
(39.269 -1.24442e-05 0)
(39.2573 -0.000216651 0)
(39.1907 -0.0017436 0)
(38.9907 -0.00693825 0)
(38.6395 -0.0154043 0)
(38.2343 -0.0227608 0)
(37.8843 -0.0269619 0)
(37.6268 -0.028908 0)
(37.9496 -3.3314 0)
(37.4563 -3.43554 0)
(36.9077 -3.37962 0)
(36.3561 -3.15243 0)
(35.8576 -2.788 0)
(35.4534 -2.34536 0)
(35.1609 -1.88481 0)
(34.9743 -1.45267 0)
(34.8731 -1.07669 0)
(34.8317 -0.768336 0)
(34.8263 -0.527642 0)
(34.8384 -0.347976 0)
(34.8561 -0.219612 0)
(34.8729 -0.132015 0)
(34.886 -0.0751672 0)
(34.895 -0.0402914 0)
(34.9005 -0.0201834 0)
(34.9036 -0.00929714 0)
(34.9051 -0.00388782 0)
(34.9057 -0.000851394 0)
(37.6593 -2.00191 0)
(37.3721 -2.04607 0)
(37.0488 -2.04192 0)
(36.7025 -1.9762 0)
(36.3529 -1.84453 0)
(36.0221 -1.65382 0)
(35.7291 -1.42086 0)
(35.4864 -1.16793 0)
(35.2978 -0.917591 0)
(35.16 -0.688394 0)
(35.0647 -0.492513 0)
(35.0019 -0.335402 0)
(34.9622 -0.216831 0)
(34.938 -0.132608 0)
(34.9237 -0.0763917 0)
(34.9155 -0.0412429 0)
(34.9109 -0.0207332 0)
(34.9085 -0.00958442 0)
(34.9073 -0.00394761 0)
(34.9069 -0.00095455 0)
(37.5485 -1.34224 0)
(37.3316 -1.36638 0)
(37.0872 -1.36796 0)
(36.82 -1.33924 0)
(36.5388 -1.27467 0)
(36.2556 -1.17303 0)
(35.9841 -1.03873 0)
(35.7366 -0.881468 0)
(35.5225 -0.71445 0)
(35.3465 -0.551531 0)
(35.2086 -0.404478 0)
(35.1056 -0.281094 0)
(35.0322 -0.184611 0)
(34.9822 -0.114222 0)
(34.9498 -0.0663336 0)
(34.9298 -0.0359991 0)
(34.9183 -0.0181508 0)
(34.9121 -0.00840609 0)
(34.909 -0.00345157 0)
(34.9077 -0.000854836 0)
(37.4978 -0.93511 0)
(37.3113 -0.950123 0)
(37.1012 -0.952149 0)
(36.8698 -0.936406 0)
(36.6217 -0.89878 0)
(36.3647 -0.837095 0)
(36.1088 -0.752294 0)
(35.8649 -0.648983 0)
(35.6429 -0.53494 0)
(35.4505 -0.41963 0)
(35.2918 -0.312187 0)
(35.1674 -0.219588 0)
(35.0749 -0.145602 0)
(35.0096 -0.0907335 0)
(34.9662 -0.0529587 0)
(34.939 -0.0288353 0)
(34.923 -0.0145667 0)
(34.9143 -0.006754 0)
(34.91 -0.00276897 0)
(34.9083 -0.000694321 0)
(37.4725 -0.655758 0)
(37.3007 -0.665646 0)
(37.1073 -0.667314 0)
(36.8935 -0.657648 0)
(36.6623 -0.633765 0)
(36.4195 -0.593789 0)
(36.173 -0.537701 0)
(35.9325 -0.467911 0)
(35.708 -0.38923 0)
(35.508 -0.308062 0)
(35.3388 -0.231053 0)
(35.2029 -0.163648 0)
(35.0997 -0.109115 0)
(35.0257 -0.0682823 0)
(34.9759 -0.0399732 0)
(34.9444 -0.0218076 0)
(34.9258 -0.0110294 0)
(34.9157 -0.00511731 0)
(34.9106 -0.00209675 0)
(34.9086 -0.000528689 0)
(37.4594 -0.453122 0)
(37.2951 -0.459725 0)
(37.1102 -0.460952 0)
(36.9054 -0.454741 0)
(36.683 -0.439114 0)
(36.4477 -0.412675 0)
(36.2066 -0.375179 0)
(35.9684 -0.327998 0)
(35.743 -0.274195 0)
(35.5394 -0.218077 0)
(35.3647 -0.164297 0)
(35.2226 -0.116818 0)
(35.1136 -0.0781332 0)
(35.0348 -0.0490102 0)
(34.9814 -0.0287395 0)
(34.9475 -0.0156965 0)
(34.9274 -0.00794392 0)
(34.9164 -0.00368713 0)
(34.911 -0.00151038 0)
(34.9088 -0.000381859 0)
(37.4527 -0.301606 0)
(37.2922 -0.305922 0)
(37.1116 -0.306762 0)
(36.9114 -0.302784 0)
(36.6936 -0.29268 0)
(36.4622 -0.275489 0)
(36.2239 -0.250974 0)
(35.9871 -0.219944 0)
(35.7613 -0.184345 0)
(35.5559 -0.146997 0)
(35.3784 -0.111012 0)
(35.2332 -0.0790948 0)
(35.1211 -0.0529914 0)
(35.0397 -0.0332822 0)
(34.9844 -0.0195344 0)
(34.9491 -0.0106754 0)
(34.9283 -0.00540477 0)
(34.9169 -0.00250909 0)
(34.9112 -0.00102768 0)
(34.9089 -0.000260161 0)
(37.4494 -0.186391 0)
(37.2908 -0.189034 0)
(37.1123 -0.18956 0)
(36.9144 -0.187149 0)
(36.6987 -0.180995 0)
(36.4694 -0.170496 0)
(36.2325 -0.155484 0)
(35.9963 -0.136425 0)
(35.7705 -0.114494 0)
(35.5642 -0.0914169 0)
(35.3853 -0.0691218 0)
(35.2385 -0.0493003 0)
(35.1249 -0.0330581 0)
(35.0422 -0.0207762 0)
(34.9859 -0.0121999 0)
(34.95 -0.00666924 0)
(34.9287 -0.00337713 0)
(34.9171 -0.00156792 0)
(34.9113 -0.000642128 0)
(34.9089 -0.000162652 0)
(37.4479 -0.0979599 0)
(37.2901 -0.0993432 0)
(37.1126 -0.0996211 0)
(36.9157 -0.098365 0)
(36.701 -0.0951526 0)
(36.4725 -0.0896647 0)
(36.2363 -0.0818073 0)
(36.0005 -0.0718194 0)
(35.7745 -0.0603099 0)
(35.5679 -0.0481827 0)
(35.3884 -0.036452 0)
(35.2409 -0.0260114 0)
(35.1266 -0.0174487 0)
(35.0433 -0.0109694 0)
(34.9865 -0.00644261 0)
(34.9504 -0.00352243 0)
(34.9289 -0.0017838 0)
(34.9172 -0.000828171 0)
(34.9113 -0.000339122 0)
(34.909 -8.59094e-05 0)
(37.4474 -0.0297408 0)
(37.2899 -0.0301601 0)
(37.1127 -0.0302447 0)
(36.9161 -0.0298645 0)
(36.7018 -0.0288916 0)
(36.4736 -0.0272287 0)
(36.2376 -0.0248469 0)
(36.0019 -0.0218177 0)
(35.7759 -0.0183252 0)
(35.5691 -0.0146435 0)
(35.3894 -0.0110806 0)
(35.2417 -0.00790831 0)
(35.1271 -0.00530571 0)
(35.0437 -0.00333588 0)
(34.9868 -0.0019594 0)
(34.9505 -0.00107133 0)
(34.929 -0.000542544 0)
(34.9172 -0.000251875 0)
(34.9113 -0.00010312 0)
(34.909 -2.61194e-05 0)
(46.5644 -36.5577 0)
(28.2651 -16.9381 0)
(28.2593 -9.5804 0)
(29.3909 -5.74454 0)
(30.5969 -3.53091 0)
(31.6541 -2.20845 0)
(32.5118 -1.40151 0)
(33.1801 -0.898775 0)
(33.6881 -0.578883 0)
(34.0667 -0.371646 0)
(34.3432 -0.235898 0)
(34.5406 -0.14683 0)
(34.6776 -0.0888846 0)
(34.7694 -0.0518953 0)
(34.8284 -0.0289829 0)
(34.8645 -0.0153434 0)
(34.8852 -0.00771956 0)
(34.8965 -0.00347054 0)
(34.9017 -0.00167345 0)
(34.904 -0.000144149 0)
(45.7903 -31.6589 0)
(29.9929 -16.6759 0)
(28.9544 -9.6702 0)
(29.7308 -5.87022 0)
(30.7759 -3.63954 0)
(31.7511 -2.29087 0)
(32.5654 -1.46045 0)
(33.2104 -0.939559 0)
(33.7055 -0.606464 0)
(34.0769 -0.38992 0)
(34.3492 -0.247737 0)
(34.5441 -0.154304 0)
(34.6796 -0.0934503 0)
(34.7705 -0.0545804 0)
(34.8291 -0.0304976 0)
(34.8649 -0.0161901 0)
(34.8853 -0.00819496 0)
(34.8966 -0.00359584 0)
(34.9017 -0.0019293 0)
(34.904 6.16506e-05 0)
(44.8856 -26.6358 0)
(31.751 -16.0913 0)
(29.8078 -9.70041 0)
(30.1661 -5.99774 0)
(31.0095 -3.76392 0)
(31.8794 -2.38974 0)
(32.637 -1.5329 0)
(33.2511 -0.990425 0)
(33.729 -0.641177 0)
(34.0906 -0.413051 0)
(34.3573 -0.26278 0)
(34.5489 -0.163822 0)
(34.6824 -0.0992746 0)
(34.7721 -0.0580086 0)
(34.8299 -0.0324301 0)
(34.8653 -0.0172584 0)
(34.8856 -0.00877804 0)
(34.8967 -0.00377496 0)
(34.9018 -0.00219926 0)
(34.9041 0.000255295 0)
(43.869 -21.7658 0)
(33.424 -15.1168 0)
(30.8147 -9.61874 0)
(30.7146 -6.10786 0)
(31.3126 -3.89855 0)
(32.0488 -2.50476 0)
(32.7329 -1.62023 0)
(33.3061 -1.053 0)
(33.7611 -0.684424 0)
(34.1095 -0.4421 0)
(34.3685 -0.281769 0)
(34.5554 -0.175872 0)
(34.6862 -0.106665 0)
(34.7743 -0.0623608 0)
(34.8311 -0.0348728 0)
(34.8659 -0.0185518 0)
(34.8859 -0.00940664 0)
(34.8968 -0.00408907 0)
(34.9018 -0.00228088 0)
(34.9041 0.00018212 0)
(42.784 -17.3343 0)
(34.8869 -13.7416 0)
(31.9396 -9.36186 0)
(31.3871 -6.16877 0)
(31.7007 -4.03106 0)
(32.2717 -2.63238 0)
(32.8613 -1.72247 0)
(33.3807 -1.12847 0)
(33.8049 -0.737524 0)
(34.1355 -0.478175 0)
(34.3839 -0.305525 0)
(34.5646 -0.191021 0)
(34.6915 -0.115986 0)
(34.7773 -0.0678617 0)
(34.8328 -0.0379646 0)
(34.8668 -0.0201903 0)
(34.8863 -0.0102046 0)
(34.897 -0.00448528 0)
(34.9019 -0.00238713 0)
(34.9042 9.22495e-05 0)
(41.6972 -13.559 0)
(36.0369 -12.038 0)
(33.1107 -8.87186 0)
(32.1779 -6.13565 0)
(32.1867 -4.13902 0)
(32.5616 -2.76346 0)
(33.0328 -1.83686 0)
(33.4823 -1.21676 0)
(33.8654 -0.801296 0)
(34.1716 -0.522211 0)
(34.4055 -0.33483 0)
(34.5774 -0.209839 0)
(34.699 -0.127618 0)
(34.7815 -0.0747487 0)
(34.8351 -0.0418431 0)
(34.868 -0.0222482 0)
(34.8869 -0.0112095 0)
(34.8973 -0.00498055 0)
(34.9021 -0.00252482 0)
(34.9042 -1.65173e-05 0)
(40.6862 -10.5249 0)
(36.8274 -10.1585 0)
(34.2277 -8.12295 0)
(33.055 -5.95736 0)
(32.7733 -4.18838 0)
(32.9307 -2.88046 0)
(33.2591 -1.95581 0)
(33.6198 -1.31525 0)
(33.9488 -0.875297 0)
(34.2222 -0.574557 0)
(34.436 -0.370208 0)
(34.5956 -0.232791 0)
(34.7096 -0.141903 0)
(34.7876 -0.0832448 0)
(34.8384 -0.0466422 0)
(34.8698 -0.0247991 0)
(34.8878 -0.0124591 0)
(34.8977 -0.00559141 0)
(34.9023 -0.00270146 0)
(34.9043 -0.000145646 0)
(39.8157 -8.17307 0)
(37.2838 -8.2883 0)
(35.1887 -7.14537 0)
(33.9545 -5.59318 0)
(33.444 -4.13664 0)
(33.384 -2.95563 0)
(33.5515 -2.06431 0)
(33.8041 -1.41679 0)
(34.0635 -0.956524 0)
(34.2929 -0.63418 0)
(34.4791 -0.411459 0)
(34.6215 -0.25997 0)
(34.7249 -0.158997 0)
(34.7964 -0.093482 0)
(34.8433 -0.0524507 0)
(34.8723 -0.0278952 0)
(34.8891 -0.0139814 0)
(34.8983 -0.00632935 0)
(34.9026 -0.00292384 0)
(34.9045 -0.000295056 0)
(39.1178 -6.35333 0)
(37.4863 -6.57583 0)
(35.9258 -6.02487 0)
(34.7923 -5.03516 0)
(34.1552 -3.94477 0)
(33.9115 -2.9533 0)
(33.9155 -2.13833 0)
(34.0449 -1.50734 0)
(34.2187 -1.03746 0)
(34.391 -0.697317 0)
(34.54 -0.456813 0)
(34.6585 -0.290596 0)
(34.7469 -0.178577 0)
(34.809 -0.105338 0)
(34.8503 -0.0592259 0)
(34.876 -0.0315226 0)
(34.891 -0.0157732 0)
(34.8991 -0.00719094 0)
(34.903 -0.00319412 0)
(34.9047 -0.000461829 0)
(38.591 -4.89999 0)
(37.53 -5.08423 0)
(36.4237 -4.86769 0)
(35.488 -4.32083 0)
(34.8398 -3.59678 0)
(34.4805 -2.84001 0)
(34.3439 -2.14693 0)
(34.3476 -1.56446 0)
(34.4233 -1.10376 0)
(34.5247 -0.755483 0)
(34.625 -0.501518 0)
(34.7111 -0.322108 0)
(34.7784 -0.199302 0)
(34.8273 -0.118124 0)
(34.8604 -0.0666207 0)
(34.8814 -0.0355113 0)
(34.8937 -0.0177552 0)
(34.9004 -0.00813789 0)
(34.9036 -0.00350126 0)
(34.905 -0.000635971 0)
(4.9489 -0.168291 0)
(13.9897 -0.124721 0)
(20.9257 -0.0777043 0)
(25.6192 -0.045288 0)
(28.6649 -0.0262571 0)
(30.6516 -0.0155522 0)
(31.9789 -0.0094659 0)
(32.8885 -0.00589403 0)
(33.5241 -0.00372118 0)
(33.9724 -0.00235754 0)
(34.2883 -0.00148341 0)
(34.5086 -0.000917947 0)
(34.6591 -0.000553549 0)
(34.759 -0.000322343 0)
(34.8227 -0.000179558 0)
(34.8615 -9.46006e-05 0)
(34.8837 -4.61025e-05 0)
(34.8958 -2.25089e-05 0)
(34.9014 -6.42176e-06 0)
(34.9039 -4.87909e-06 0)
(4.95045 -0.54085 0)
(13.9927 -0.400778 0)
(20.9281 -0.249676 0)
(25.6207 -0.145516 0)
(28.6656 -0.0843683 0)
(30.652 -0.0499728 0)
(31.9791 -0.0304166 0)
(32.8886 -0.0189394 0)
(33.5241 -0.0119574 0)
(33.9724 -0.00757563 0)
(34.2884 -0.00476673 0)
(34.5086 -0.00294971 0)
(34.6591 -0.00177877 0)
(34.759 -0.00103583 0)
(34.8227 -0.000577034 0)
(34.8615 -0.000304026 0)
(34.8837 -0.000148142 0)
(34.8958 -7.23834e-05 0)
(34.9014 -2.05784e-05 0)
(34.9039 -1.56787e-05 0)
(4.95462 -0.993189 0)
(14.0009 -0.735739 0)
(20.9346 -0.458268 0)
(25.6245 -0.267077 0)
(28.6676 -0.154853 0)
(30.653 -0.0917268 0)
(31.9796 -0.0558328 0)
(32.8889 -0.0347663 0)
(33.5243 -0.0219502 0)
(33.9725 -0.0139067 0)
(34.2884 -0.00875046 0)
(34.5087 -0.00541492 0)
(34.6592 -0.00326538 0)
(34.759 -0.00190154 0)
(34.8228 -0.00105936 0)
(34.8616 -0.000558171 0)
(34.8837 -0.000271949 0)
(34.8958 -0.000132953 0)
(34.9014 -3.76971e-05 0)
(34.9039 -2.87839e-05 0)
(4.96305 -1.54278 0)
(14.0175 -1.14216 0)
(20.9478 -0.71116 0)
(25.6321 -0.414434 0)
(28.6715 -0.240308 0)
(30.655 -0.142359 0)
(31.9806 -0.0866588 0)
(32.8895 -0.0539643 0)
(33.5246 -0.0340724 0)
(33.9727 -0.0215875 0)
(34.2885 -0.0135836 0)
(34.5087 -0.00840583 0)
(34.6592 -0.00506905 0)
(34.759 -0.0029519 0)
(34.8228 -0.00164456 0)
(34.8616 -0.000866525 0)
(34.8837 -0.000422162 0)
(34.8958 -0.000206446 0)
(34.9014 -5.84636e-05 0)
(34.9039 -4.46883e-05 0)
(4.97828 -2.2113 0)
(14.0474 -1.63526 0)
(20.9715 -1.01754 0)
(25.6459 -0.592906 0)
(28.6787 -0.343836 0)
(30.6586 -0.203723 0)
(31.9825 -0.124031 0)
(32.8905 -0.0772446 0)
(33.5251 -0.0487748 0)
(33.973 -0.0309039 0)
(34.2887 -0.0194464 0)
(34.5088 -0.0120341 0)
(34.6592 -0.00725715 0)
(34.759 -0.00422616 0)
(34.8228 -0.00235452 0)
(34.8616 -0.00124062 0)
(34.8837 -0.000604397 0)
(34.8958 -0.000295612 0)
(34.9014 -8.36493e-05 0)
(34.9039 -6.39921e-05 0)
(5.00423 -3.02592 0)
(14.0982 -2.23348 0)
(21.0118 -1.38828 0)
(25.6693 -0.808769 0)
(28.6908 -0.469114 0)
(30.6647 -0.27803 0)
(31.9856 -0.169311 0)
(32.8921 -0.105463 0)
(33.5261 -0.0666003 0)
(33.9735 -0.0422015 0)
(34.289 -0.0265568 0)
(34.509 -0.0164349 0)
(34.6593 -0.00991122 0)
(34.7591 -0.00577183 0)
(34.8228 -0.00321571 0)
(34.8616 -0.00169441 0)
(34.8837 -0.000825449 0)
(34.8958 -0.000403789 0)
(34.9014 -0.000114184 0)
(34.9039 -8.74268e-05 0)
(5.04691 -4.02134 0)
(14.1816 -2.95908 0)
(21.0774 -1.83607 0)
(25.7074 -1.0693 0)
(28.7105 -0.620442 0)
(30.6747 -0.367888 0)
(31.9908 -0.224119 0)
(32.8949 -0.139641 0)
(33.5276 -0.0882011 0)
(33.9744 -0.055896 0)
(34.2895 -0.0351775 0)
(34.5093 -0.021771 0)
(34.6595 -0.0131297 0)
(34.7592 -0.0076463 0)
(34.8229 -0.00426015 0)
(34.8616 -0.00224477 0)
(34.8837 -0.00109353 0)
(34.8958 -0.000535015 0)
(34.9014 -0.000151181 0)
(34.9039 -0.000115885 0)
(5.11574 -5.24289 0)
(14.3154 -3.83887 0)
(21.182 -2.37539 0)
(25.7679 -1.38272 0)
(28.7418 -0.802732 0)
(30.6906 -0.476327 0)
(31.999 -0.29036 0)
(32.8992 -0.180994 0)
(33.53 -0.114356 0)
(33.9757 -0.0724854 0)
(34.2903 -0.0456238 0)
(34.5097 -0.0282385 0)
(34.6598 -0.0170311 0)
(34.7593 -0.00991876 0)
(34.8229 -0.00552641 0)
(34.8617 -0.00291205 0)
(34.8838 -0.00141853 0)
(34.8958 -0.000694173 0)
(34.9014 -0.000195973 0)
(34.9039 -0.00015046 0)
(5.22568 -6.75177 0)
(14.5273 -4.90481 0)
(21.3457 -3.02197 0)
(25.8619 -1.75785 0)
(28.7905 -1.0214 0)
(30.7152 -0.606779 0)
(32.0117 -0.370238 0)
(32.906 -0.230947 0)
(33.5337 -0.145985 0)
(33.9778 -0.0925627 0)
(34.2915 -0.0582727 0)
(34.5105 -0.0360723 0)
(34.6602 -0.0217578 0)
(34.7596 -0.0126723 0)
(34.8231 -0.00706088 0)
(34.8617 -0.00372073 0)
(34.8838 -0.00181235 0)
(34.8958 -0.000887158 0)
(34.9014 -0.000250127 0)
(34.9039 -0.000192498 0)
(5.40108 -8.63422 0)
(14.8611 -6.19415 0)
(21.599 -3.79146 0)
(26.0062 -2.2033 0)
(28.8649 -1.28201 0)
(30.7529 -0.762967 0)
(32.0312 -0.46623 0)
(32.9165 -0.291135 0)
(33.5395 -0.184164 0)
(33.9811 -0.116826 0)
(34.2934 -0.073571 0)
(34.5116 -0.0455517 0)
(34.6608 -0.0274793 0)
(34.7599 -0.0160061 0)
(34.8233 -0.00891902 0)
(34.8618 -0.00470008 0)
(34.8838 -0.0022892 0)
(34.8958 -0.00112107 0)
(34.9014 -0.00031547 0)
(34.9039 -0.000243665 0)
(5.68327 -11.0188 0)
(15.3879 -7.74777 0)
(21.9874 -4.69619 0)
(26.2246 -2.72575 0)
(28.9771 -1.58956 0)
(30.8099 -0.94862 0)
(32.0608 -0.580992 0)
(32.9323 -0.363387 0)
(33.5483 -0.230122 0)
(33.9861 -0.146086 0)
(34.2963 -0.0920412 0)
(34.5132 -0.0570055 0)
(34.6618 -0.0343961 0)
(34.7605 -0.0200378 0)
(34.8236 -0.0111666 0)
(34.862 -0.00588491 0)
(34.8839 -0.00286591 0)
(34.8959 -0.00140442 0)
(34.9014 -0.000394072 0)
(34.9039 -0.000306046 0)
(6.14609 -14.1109 0)
(16.2272 -9.60293 0)
(22.5792 -5.73794 0)
(26.5508 -3.32653 0)
(29.1442 -1.94705 0)
(30.895 -1.1669 0)
(32.105 -0.71713 0)
(32.9561 -0.449634 0)
(33.5615 -0.285212 0)
(33.9936 -0.181257 0)
(34.3006 -0.114283 0)
(34.5158 -0.0708142 0)
(34.6632 -0.0427416 0)
(34.7613 -0.0249048 0)
(34.824 -0.0138809 0)
(34.8622 -0.0073161 0)
(34.884 -0.00356219 0)
(34.8959 -0.00174737 0)
(34.9014 -0.00048818 0)
(34.9039 -0.000382286 0)
(6.93103 -18.2668 0)
(17.5902 -11.7676 0)
(23.4747 -6.89253 0)
(27.0304 -3.9953 0)
(29.3886 -2.35289 0)
(31.0199 -1.41931 0)
(32.1705 -0.876748 0)
(32.9915 -0.551724 0)
(33.5812 -0.350836 0)
(34.0049 -0.223327 0)
(34.3072 -0.14096 0)
(34.5195 -0.0874068 0)
(34.6654 -0.0527817 0)
(34.7625 -0.0307648 0)
(34.8247 -0.0171507 0)
(34.8626 -0.00904084 0)
(34.8842 -0.00440067 0)
(34.896 -0.00216191 0)
(34.9015 -0.00060004 0)
(34.9039 -0.000475807 0)
(8.33419 -24.1715 0)
(19.8758 -14.1338 0)
(24.8155 -8.0778 0)
(27.7207 -4.69947 0)
(29.7391 -2.7967 0)
(31.2005 -1.7039 0)
(32.2659 -1.06063 0)
(33.0435 -0.671054 0)
(33.6104 -0.428282 0)
(34.0216 -0.273288 0)
(34.3169 -0.172771 0)
(34.5252 -0.107245 0)
(34.6687 -0.0648077 0)
(34.7644 -0.0377924 0)
(34.8257 -0.0210752 0)
(34.8631 -0.0111121 0)
(34.8845 -0.0054064 0)
(34.8961 -0.00266207 0)
(34.9015 -0.000731501 0)
(34.904 -0.000591156 0)
(11.0461 -33.3094 0)
(23.9042 -16.1708 0)
(26.7695 -9.09451 0)
(28.6794 -5.3692 0)
(30.2267 -3.2535 0)
(31.4553 -2.01248 0)
(32.4026 -1.26691 0)
(33.1189 -0.807926 0)
(33.653 -0.518405 0)
(34.0463 -0.33198 0)
(34.3312 -0.210371 0)
(34.5336 -0.130793 0)
(34.6735 -0.079119 0)
(34.7671 -0.0461706 0)
(34.8272 -0.0257694 0)
(34.8639 -0.0136184 0)
(34.8849 -0.00675257 0)
(34.8963 -0.0031606 0)
(34.9016 -0.00122722 0)
(34.904 -0.000389264 0)
)
;

boundaryField
{
    inlet
    {
        type            fixedValue;
        value           uniform (39.27 0 0);
    }
    outlet
    {
        type            zeroGradient;
    }
    frontAndBack
    {
        type            empty;
    }
    noslipwall
    {
        type            noSlip;
    }
}


// ************************************************************************* //
