/*--------------------------------*- C++ -*----------------------------------*\
  =========                 |
  \\      /  F ield         | OpenFOAM: The Open Source CFD Toolbox
   \\    /   O peration     | Website:  https://openfoam.org
    \\  /    A nd           | Version:  7
     \\/     M anipulation  |
\*---------------------------------------------------------------------------*/
FoamFile
{
    version     2.0;
    format      ascii;
    class       volVectorField;
    location    "0";
    object      U2;
}
// * * * * * * * * * * * * * * * * * * * * * * * * * * * * * * * * * * * * * //

dimensions      [0 1 -1 0 0 0 0];

internalField   nonuniform List<vector> 
900
(
(41.92 7.36148e-09 0)
(41.92 -1.22512e-07 0)
(41.9211 -4.37668e-06 0)
(41.9339 -7.92318e-05 0)
(42.0129 -0.00069877 0)
(42.3008 -0.00354376 0)
(43.0372 -0.0127846 0)
(44.6091 -0.0404535 0)
(48.0583 -0.141526 0)
(59.5742 -0.833358 0)
(41.92 1.55064e-08 0)
(41.92 -3.88701e-07 0)
(41.9211 -1.44208e-05 0)
(41.9339 -0.00026074 0)
(42.0128 -0.00229957 0)
(42.3006 -0.011661 0)
(43.036 -0.0420573 0)
(44.6028 -0.132936 0)
(47.996 -0.461902 0)
(57.3499 -2.49405 0)
(41.92 1.72918e-08 0)
(41.92 -7.17726e-07 0)
(41.9211 -2.73985e-05 0)
(41.9338 -0.000494933 0)
(42.0127 -0.00436482 0)
(42.2998 -0.0221284 0)
(43.0326 -0.0797492 0)
(44.5843 -0.25134 0)
(47.8379 -0.859244 0)
(54.9727 -4.0711 0)
(41.92 1.9622e-08 0)
(41.92 -1.1418e-06 0)
(41.9211 -4.41235e-05 0)
(41.9338 -0.000796716 0)
(42.0124 -0.00702515 0)
(42.2982 -0.0355969 0)
(43.025 -0.128078 0)
(44.5443 -0.401173 0)
(47.5473 -1.3315 0)
(52.5419 -5.4118 0)
(41.92 2.26688e-08 0)
(41.92 -1.68715e-06 0)
(41.9211 -6.56279e-05 0)
(41.9337 -0.00118466 0)
(42.0118 -0.0104425 0)
(42.295 -0.0528582 0)
(43.01 -0.189579 0)
(44.4689 -0.586992 0)
(47.0927 -1.85899 0)
(50.1768 -6.36395 0)
(41.92 2.66636e-08 0)
(41.92 -2.38568e-06 0)
(41.9211 -9.31636e-05 0)
(41.9336 -0.00168121 0)
(42.0106 -0.0148104 0)
(42.2889 -0.0748246 0)
(42.9827 -0.266809 0)
(44.3396 -0.809913 0)
(46.4601 -2.39724 0)
(47.9937 -6.82001 0)
(41.92 3.19878e-08 0)
(41.92 -3.27417e-06 0)
(41.921 -0.000128166 0)
(41.9333 -0.00231193 0)
(42.0085 -0.0203441 0)
(42.2782 -0.102434 0)
(42.9353 -0.361611 0)
(44.1354 -1.06356 0)
(45.6657 -2.87632 0)
(46.0804 -6.75941 0)
(41.92 3.9215e-08 0)
(41.92 -4.39033e-06 0)
(41.921 -0.00017209 0)
(41.9328 -0.00310236 0)
(42.0049 -0.027247 0)
(42.2597 -0.136392 0)
(42.8573 -0.473615 0)
(43.8386 -1.32918 0)
(44.7608 -3.21317 0)
(44.4819 -6.26229 0)
(41.92 4.93403e-08 0)
(41.92 -5.76187e-06 0)
(41.9209 -0.000225954 0)
(41.932 -0.00406938 0)
(41.9988 -0.0356231 0)
(42.229 -0.176597 0)
(42.736 -0.597682 0)
(43.4435 -1.57261 0)
(43.8241 -3.33851 0)
(43.2046 -5.47783 0)
(41.92 6.41462e-08 0)
(41.92 -7.38045e-06 0)
(41.9208 -0.000289268 0)
(41.9306 -0.00520133 0)
(41.9886 -0.0452857 0)
(42.1801 -0.221028 0)
(42.5595 -0.720476 0)
(42.9651 -1.74806 0)
(42.9429 -3.22869 0)
(42.2341 -4.56186 0)
(41.92 2.25204e-07 0)
(41.92 -1.01412e-05 0)
(41.9205 -0.000387804 0)
(41.9266 -0.0069369 0)
(41.9606 -0.0592203 0)
(42.0513 -0.273948 0)
(42.1441 -0.801844 0)
(42.0482 -1.66757 0)
(41.6385 -2.61286 0)
(41.054 -3.26377 0)
(41.92 3.17545e-07 0)
(41.92 -1.18964e-05 0)
(41.92 -0.000450739 0)
(41.9196 -0.0080103 0)
(41.9144 -0.066897 0)
(41.8767 -0.291739 0)
(41.7295 -0.758605 0)
(41.4052 -1.33572 0)
(40.9608 -1.78785 0)
(40.5347 -2.03206 0)
(41.92 2.18451e-07 0)
(41.92 -1.08763e-05 0)
(41.9196 -0.000416745 0)
(41.9143 -0.0073661 0)
(41.8818 -0.0605632 0)
(41.7659 -0.254018 0)
(41.5051 -0.615741 0)
(41.112 -0.997189 0)
(40.6911 -1.25246 0)
(40.3404 -1.37883 0)
(41.92 1.52466e-07 0)
(41.92 -8.91511e-06 0)
(41.9193 -0.000343838 0)
(41.9109 -0.00605631 0)
(41.8612 -0.0493089 0)
(41.7003 -0.201989 0)
(41.3832 -0.47027 0)
(40.9665 -0.728949 0)
(40.5658 -0.889037 0)
(40.2525 -0.965533 0)
(41.92 1.0668e-07 0)
(41.92 -6.81029e-06 0)
(41.9191 -0.000264214 0)
(41.9088 -0.00464368 0)
(41.849 -0.0375899 0)
(41.6627 -0.151889 0)
(41.3168 -0.345673 0)
(40.891 -0.523409 0)
(40.503 -0.629082 0)
(40.2089 -0.67877 0)
(41.92 7.36134e-08 0)
(41.92 -4.9079e-06 0)
(41.919 -0.000191841 0)
(41.9076 -0.0033669 0)
(41.842 -0.0271662 0)
(41.6419 -0.10893 0)
(41.2809 -0.244813 0)
(40.8513 -0.36607 0)
(40.4705 -0.436675 0)
(40.1864 -0.469613 0)
(41.92 4.89983e-08 0)
(41.92 -3.31501e-06 0)
(41.919 -0.000131118 0)
(41.907 -0.00229861 0)
(41.8383 -0.0185146 0)
(41.6308 -0.0739326 0)
(41.262 -0.165048 0)
(40.8307 -0.245178 0)
(40.4539 -0.291335 0)
(40.1749 -0.312783 0)
(41.92 3.03089e-08 0)
(41.92 -2.03185e-06 0)
(41.9189 -8.21683e-05 0)
(41.9066 -0.00143866 0)
(41.8364 -0.0115785 0)
(41.6252 -0.046138 0)
(41.2526 -0.102651 0)
(40.8205 -0.151985 0)
(40.4456 -0.180251 0)
(40.1693 -0.19336 0)
(41.92 1.59499e-08 0)
(41.92 -1.01917e-06 0)
(41.9189 -4.35342e-05 0)
(41.9065 -0.000760358 0)
(41.8356 -0.00611834 0)
(41.6227 -0.0243561 0)
(41.2484 -0.0541055 0)
(40.816 -0.0799882 0)
(40.442 -0.0947819 0)
(40.1668 -0.101637 0)
(41.92 4.84715e-09 0)
(41.92 -2.87207e-07 0)
(41.9189 -1.3284e-05 0)
(41.9064 -0.000231271 0)
(41.8353 -0.00186126 0)
(41.6218 -0.00740645 0)
(41.247 -0.0164438 0)
(40.8145 -0.0242968 0)
(40.4408 -0.0287813 0)
(40.1659 -0.0308588 0)
(40.5105 -3.55621 0)
(39.9839 -3.66737 0)
(39.3983 -3.60768 0)
(38.8095 -3.36517 0)
(38.2773 -2.97613 0)
(37.8459 -2.50363 0)
(37.5336 -2.012 0)
(37.3344 -1.55069 0)
(37.2264 -1.14934 0)
(37.1822 -0.820185 0)
(37.1764 -0.563248 0)
(37.1893 -0.371457 0)
(37.2083 -0.234432 0)
(37.2262 -0.140924 0)
(37.2402 -0.0802396 0)
(37.2498 -0.0430103 0)
(37.2557 -0.0215454 0)
(37.2589 -0.00992453 0)
(37.2605 -0.00415017 0)
(37.2612 -0.000908848 0)
(40.2006 -2.137 0)
(39.8941 -2.18414 0)
(39.5489 -2.17972 0)
(39.1792 -2.10956 0)
(38.8061 -1.969 0)
(38.4529 -1.76543 0)
(38.1401 -1.51674 0)
(37.881 -1.24674 0)
(37.6798 -0.979511 0)
(37.5326 -0.734848 0)
(37.4309 -0.525748 0)
(37.3639 -0.358035 0)
(37.3215 -0.231463 0)
(37.2957 -0.141557 0)
(37.2804 -0.0815468 0)
(37.2716 -0.0440261 0)
(37.2668 -0.0221323 0)
(37.2642 -0.0102312 0)
(37.263 -0.004214 0)
(37.2625 -0.00101896 0)
(40.0824 -1.43281 0)
(39.8508 -1.45858 0)
(39.5899 -1.46027 0)
(39.3047 -1.42961 0)
(39.0045 -1.36068 0)
(38.7022 -1.25219 0)
(38.4123 -1.10882 0)
(38.1482 -0.940951 0)
(37.9196 -0.762662 0)
(37.7317 -0.588749 0)
(37.5845 -0.431772 0)
(37.4746 -0.300063 0)
(37.3962 -0.197069 0)
(37.3428 -0.12193 0)
(37.3082 -0.0708098 0)
(37.287 -0.0384283 0)
(37.2746 -0.0193757 0)
(37.268 -0.00897335 0)
(37.2647 -0.00368448 0)
(37.2634 -0.000912521 0)
(40.0282 -0.998213 0)
(39.8291 -1.01424 0)
(39.6049 -1.0164 0)
(39.3578 -0.999597 0)
(39.093 -0.959431 0)
(38.8187 -0.893583 0)
(38.5455 -0.80306 0)
(38.2851 -0.692777 0)
(38.0481 -0.571038 0)
(37.8428 -0.447947 0)
(37.6734 -0.333254 0)
(37.5406 -0.234406 0)
(37.4418 -0.155427 0)
(37.3721 -0.0968564 0)
(37.3257 -0.0565324 0)
(37.2967 -0.0307811 0)
(37.2797 -0.0155497 0)
(37.2704 -0.00720977 0)
(37.2658 -0.00295582 0)
(37.2639 -0.000741175 0)
(40.0012 -0.70001 0)
(39.8178 -0.710565 0)
(39.6114 -0.712345 0)
(39.3831 -0.702027 0)
(39.1363 -0.676532 0)
(38.8771 -0.633859 0)
(38.614 -0.573985 0)
(38.3573 -0.499487 0)
(38.1176 -0.415496 0)
(37.9042 -0.328851 0)
(37.7235 -0.246644 0)
(37.5785 -0.174692 0)
(37.4683 -0.116478 0)
(37.3893 -0.0728901 0)
(37.3361 -0.0426707 0)
(37.3025 -0.0232792 0)
(37.2827 -0.0117736 0)
(37.2718 -0.00546264 0)
(37.2665 -0.00223824 0)
(37.2643 -0.000564365 0)
(39.9872 -0.4837 0)
(39.8118 -0.490748 0)
(39.6145 -0.492058 0)
(39.3958 -0.485427 0)
(39.1584 -0.468746 0)
(38.9073 -0.440523 0)
(38.6498 -0.400497 0)
(38.3956 -0.350132 0)
(38.155 -0.292698 0)
(37.9376 -0.232793 0)
(37.7511 -0.175384 0)
(37.5995 -0.124701 0)
(37.4832 -0.0834057 0)
(37.3991 -0.0523175 0)
(37.342 -0.0306788 0)
(37.3058 -0.0167557 0)
(37.2844 -0.00847998 0)
(37.2726 -0.00393595 0)
(37.2668 -0.0016123 0)
(37.2645 -0.000407627 0)
(39.9801 -0.321959 0)
(39.8087 -0.326566 0)
(39.616 -0.327463 0)
(39.4023 -0.323216 0)
(39.1697 -0.31243 0)
(38.9228 -0.294079 0)
(38.6684 -0.26791 0)
(38.4155 -0.234787 0)
(38.1745 -0.196785 0)
(37.9553 -0.156916 0)
(37.7658 -0.118503 0)
(37.6108 -0.0844323 0)
(37.4911 -0.0565674 0)
(37.4043 -0.0355281 0)
(37.3452 -0.0208526 0)
(37.3076 -0.0113958 0)
(37.2853 -0.00576949 0)
(37.2731 -0.00267841 0)
(37.267 -0.00109703 0)
(37.2646 -0.000277717 0)
(39.9765 -0.198969 0)
(39.8072 -0.20179 0)
(39.6167 -0.202352 0)
(39.4054 -0.199778 0)
(39.1752 -0.193209 0)
(38.9304 -0.182002 0)
(38.6775 -0.165976 0)
(38.4254 -0.145632 0)
(38.1843 -0.12222 0)
(37.9641 -0.0975859 0)
(37.7732 -0.0737862 0)
(37.6164 -0.0526272 0)
(37.4951 -0.0352889 0)
(37.4069 -0.0221782 0)
(37.3468 -0.0130232 0)
(37.3085 -0.00711929 0)
(37.2858 -0.00360502 0)
(37.2733 -0.00167372 0)
(37.2671 -0.000685459 0)
(37.2647 -0.000173628 0)
(39.975 -0.10457 0)
(39.8065 -0.106047 0)
(39.617 -0.106344 0)
(39.4068 -0.105003 0)
(39.1777 -0.101574 0)
(38.9338 -0.0957154 0)
(38.6816 -0.0873278 0)
(38.4298 -0.0766659 0)
(38.1886 -0.0643797 0)
(37.9681 -0.0514342 0)
(37.7765 -0.0389118 0)
(37.619 -0.0277667 0)
(37.4969 -0.0186261 0)
(37.4081 -0.0117096 0)
(37.3475 -0.00687736 0)
(37.3089 -0.00376013 0)
(37.286 -0.00190417 0)
(37.2734 -0.000884057 0)
(37.2672 -0.000362006 0)
(37.2647 -9.17067e-05 0)
(39.9744 -0.0317478 0)
(39.8063 -0.0321954 0)
(39.6171 -0.0322856 0)
(39.4073 -0.0318798 0)
(39.1785 -0.0308413 0)
(38.9349 -0.0290662 0)
(38.6829 -0.0265236 0)
(38.4313 -0.0232899 0)
(38.1901 -0.0195618 0)
(37.9694 -0.0156317 0)
(37.7776 -0.0118284 0)
(37.6198 -0.00844197 0)
(37.4976 -0.00566375 0)
(37.4085 -0.00356099 0)
(37.3477 -0.00209162 0)
(37.309 -0.00114363 0)
(37.286 -0.000579155 0)
(37.2735 -0.000268871 0)
(37.2672 -0.000110079 0)
(37.2647 -2.7882e-05 0)
(49.7066 -39.0246 0)
(30.1725 -18.0811 0)
(30.1663 -10.2269 0)
(31.3743 -6.13219 0)
(32.6617 -3.76918 0)
(33.7902 -2.35747 0)
(34.7058 -1.49608 0)
(35.4192 -0.959426 0)
(35.9615 -0.617947 0)
(36.3656 -0.396725 0)
(36.6608 -0.251817 0)
(36.8715 -0.156738 0)
(37.0177 -0.0948827 0)
(37.1157 -0.0553973 0)
(37.1787 -0.0309387 0)
(37.2173 -0.0163788 0)
(37.2393 -0.00824049 0)
(37.2513 -0.00370474 0)
(37.2569 -0.00178637 0)
(37.2594 -0.000153876 0)
(48.8803 -33.7953 0)
(32.0169 -17.8012 0)
(30.9082 -10.3228 0)
(31.7371 -6.26635 0)
(32.8527 -3.88515 0)
(33.8937 -2.44546 0)
(34.763 -1.559 0)
(35.4515 -1.00296 0)
(35.98 -0.64739 0)
(36.3764 -0.416232 0)
(36.6671 -0.264455 0)
(36.8752 -0.164716 0)
(37.0198 -0.0997564 0)
(37.1169 -0.0582636 0)
(37.1794 -0.0325556 0)
(37.2176 -0.0172827 0)
(37.2395 -0.00874797 0)
(37.2514 -0.0038385 0)
(37.2569 -0.0020595 0)
(37.2594 6.58109e-05 0)
(47.9146 -28.4332 0)
(33.8936 -17.1771 0)
(31.8193 -10.355 0)
(32.2018 -6.40248 0)
(33.1021 -4.01791 0)
(34.0306 -2.55101 0)
(34.8394 -1.63634 0)
(35.4949 -1.05726 0)
(36.0051 -0.684445 0)
(36.3911 -0.440925 0)
(36.6758 -0.280513 0)
(36.8803 -0.174877 0)
(37.0228 -0.105974 0)
(37.1186 -0.0619231 0)
(37.1803 -0.0346185 0)
(37.2181 -0.018423 0)
(37.2397 -0.00937039 0)
(37.2515 -0.0040297 0)
(37.257 -0.00234767 0)
(37.2595 0.000272522 0)
(46.8294 -23.2346 0)
(35.6795 -16.1369 0)
(32.8941 -10.2678 0)
(32.7873 -6.52003 0)
(33.4256 -4.16163 0)
(34.2115 -2.67378 0)
(34.9417 -1.72957 0)
(35.5536 -1.12406 0)
(36.0393 -0.73061 0)
(36.4112 -0.471934 0)
(36.6877 -0.300783 0)
(36.8873 -0.187741 0)
(37.0269 -0.113863 0)
(37.1209 -0.066569 0)
(37.1816 -0.0372261 0)
(37.2187 -0.0198037 0)
(37.24 -0.0100414 0)
(37.2517 -0.00436501 0)
(37.2571 -0.0024348 0)
(37.2595 0.00019441 0)
(45.6711 -18.504 0)
(37.2411 -14.6689 0)
(34.095 -9.99361 0)
(33.5051 -6.58504 0)
(33.8399 -4.30308 0)
(34.4495 -2.81001 0)
(35.0788 -1.8387 0)
(35.6333 -1.20462 0)
(36.0861 -0.787294 0)
(36.439 -0.510442 0)
(36.7042 -0.326142 0)
(36.897 -0.203911 0)
(37.0325 -0.123812 0)
(37.1241 -0.0724411 0)
(37.1833 -0.0405265 0)
(37.2197 -0.0215527 0)
(37.2405 -0.0108933 0)
(37.2519 -0.00478795 0)
(37.2572 -0.00254822 0)
(37.2595 9.84747e-05 0)
(44.511 -14.4739 0)
(38.4687 -12.8503 0)
(35.3451 -9.47055 0)
(34.3494 -6.54969 0)
(34.3587 -4.41833 0)
(34.7589 -2.94994 0)
(35.2619 -1.96082 0)
(35.7417 -1.29887 0)
(36.1507 -0.855368 0)
(36.4776 -0.55745 0)
(36.7273 -0.357425 0)
(36.9107 -0.223999 0)
(37.0405 -0.13623 0)
(37.1287 -0.0797928 0)
(37.1858 -0.0446668 0)
(37.221 -0.0237495 0)
(37.2412 -0.011966 0)
(37.2522 -0.00531665 0)
(37.2573 -0.00269519 0)
(37.2596 -1.76319e-05 0)
(43.4318 -11.2352 0)
(39.3126 -10.844 0)
(36.5374 -8.67109 0)
(35.2856 -6.35937 0)
(34.9849 -4.47102 0)
(35.1529 -3.07483 0)
(35.5035 -2.0878 0)
(35.8886 -1.40401 0)
(36.2398 -0.934363 0)
(36.5315 -0.613329 0)
(36.7598 -0.39519 0)
(36.9301 -0.2485 0)
(37.0519 -0.151479 0)
(37.1351 -0.0888623 0)
(37.1894 -0.0497897 0)
(37.2228 -0.0264726 0)
(37.2421 -0.0132998 0)
(37.2526 -0.00596873 0)
(37.2575 -0.00288376 0)
(37.2597 -0.000155475 0)
(42.5026 -8.7246 0)
(39.7998 -8.84761 0)
(37.5633 -7.62755 0)
(36.2458 -5.97062 0)
(35.7008 -4.41579 0)
(35.6369 -3.15508 0)
(35.8156 -2.20361 0)
(36.0852 -1.5124 0)
(36.3621 -1.02107 0)
(36.607 -0.676975 0)
(36.8058 -0.439225 0)
(36.9578 -0.277513 0)
(37.0682 -0.169726 0)
(37.1445 -0.0997903 0)
(37.1945 -0.0559901 0)
(37.2255 -0.0297776 0)
(37.2435 -0.0149249 0)
(37.2532 -0.00675646 0)
(37.2578 -0.00312115 0)
(37.2599 -0.000314967 0)
(41.7575 -6.78207 0)
(40.0159 -7.01957 0)
(38.3502 -6.43144 0)
(37.1402 -5.37494 0)
(36.4601 -4.21097 0)
(36.2 -3.15259 0)
(36.2041 -2.28262 0)
(36.3423 -1.60906 0)
(36.5279 -1.10747 0)
(36.7117 -0.744373 0)
(36.8708 -0.487639 0)
(36.9974 -0.310206 0)
(37.0917 -0.190628 0)
(37.158 -0.112446 0)
(37.202 -0.0632225 0)
(37.2295 -0.0336498 0)
(37.2455 -0.0168376 0)
(37.2542 -0.0076762 0)
(37.2583 -0.00340967 0)
(37.2601 -0.000492994 0)
(41.1952 -5.23065 0)
(40.0626 -5.42732 0)
(38.8816 -5.19617 0)
(37.8828 -4.6124 0)
(37.1908 -3.8395 0)
(36.8073 -3.03166 0)
(36.6614 -2.2918 0)
(36.6654 -1.67004 0)
(36.7462 -1.17825 0)
(36.8545 -0.806464 0)
(36.9615 -0.535361 0)
(37.0534 -0.343845 0)
(37.1253 -0.212751 0)
(37.1775 -0.126095 0)
(37.2129 -0.0711164 0)
(37.2352 -0.0379077 0)
(37.2483 -0.0189534 0)
(37.2555 -0.00868705 0)
(37.2589 -0.00373753 0)
(37.2604 -0.000678887 0)
(5.28286 -0.179647 0)
(14.9337 -0.133138 0)
(22.3378 -0.0829479 0)
(27.3481 -0.0483441 0)
(30.5992 -0.0280289 0)
(32.72 -0.0166017 0)
(34.1368 -0.0101047 0)
(35.1079 -0.00629177 0)
(35.7863 -0.00397229 0)
(36.2649 -0.00251663 0)
(36.6022 -0.00158351 0)
(36.8373 -0.000979892 0)
(36.998 -0.000590903 0)
(37.1046 -0.000344096 0)
(37.1726 -0.000191675 0)
(37.2141 -0.000100984 0)
(37.2377 -4.92136e-05 0)
(37.2506 -2.40279e-05 0)
(37.2566 -6.85511e-06 0)
(37.2592 -5.20834e-06 0)
(5.28452 -0.577347 0)
(14.937 -0.427823 0)
(22.3404 -0.266525 0)
(27.3496 -0.155335 0)
(30.6 -0.0900616 0)
(32.7204 -0.0533451 0)
(34.1371 -0.0324691 0)
(35.108 -0.0202174 0)
(35.7864 -0.0127643 0)
(36.2649 -0.00808684 0)
(36.6022 -0.0050884 0)
(36.8373 -0.00314876 0)
(36.998 -0.0018988 0)
(37.1046 -0.00110572 0)
(37.1726 -0.000615974 0)
(37.2141 -0.000324542 0)
(37.2377 -0.000158139 0)
(37.2506 -7.7268e-05 0)
(37.2566 -2.1967e-05 0)
(37.2592 -1.67367e-05 0)
(5.28897 -1.06021 0)
(14.9457 -0.785388 0)
(22.3473 -0.489193 0)
(27.3536 -0.2851 0)
(30.6021 -0.165303 0)
(32.7215 -0.0979167 0)
(34.1376 -0.0596005 0)
(35.1083 -0.0371124 0)
(35.7865 -0.0234314 0)
(36.265 -0.0148452 0)
(36.6022 -0.00934096 0)
(36.8374 -0.00578033 0)
(36.998 -0.00348574 0)
(37.1046 -0.00202986 0)
(37.1726 -0.00113085 0)
(37.2141 -0.000595838 0)
(37.2377 -0.000290301 0)
(37.2506 -0.000141925 0)
(37.2566 -4.0241e-05 0)
(37.2592 -3.07263e-05 0)
(5.29796 -1.64689 0)
(14.9634 -1.21924 0)
(22.3614 -0.759151 0)
(27.3618 -0.442401 0)
(30.6063 -0.256525 0)
(32.7236 -0.151966 0)
(34.1387 -0.0925067 0)
(35.1089 -0.0576059 0)
(35.7869 -0.0363717 0)
(36.2652 -0.0230442 0)
(36.6023 -0.0145002 0)
(36.8374 -0.00897307 0)
(36.998 -0.00541111 0)
(37.1046 -0.0031511 0)
(37.1727 -0.00175554 0)
(37.2141 -0.000924999 0)
(37.2377 -0.00045065 0)
(37.2506 -0.000220377 0)
(37.2566 -6.24088e-05 0)
(37.2592 -4.77039e-05 0)
(5.31423 -2.36052 0)
(14.9953 -1.74561 0)
(22.3867 -1.0862 0)
(27.3766 -0.632916 0)
(30.614 -0.367038 0)
(32.7275 -0.217471 0)
(34.1407 -0.132401 0)
(35.11 -0.0824572 0)
(35.7875 -0.0520662 0)
(36.2655 -0.0329894 0)
(36.6025 -0.0207587 0)
(36.8375 -0.0128462 0)
(36.9981 -0.00774687 0)
(37.1046 -0.00451134 0)
(37.1727 -0.0025134 0)
(37.2141 -0.00132434 0)
(37.2377 -0.000645182 0)
(37.2506 -0.000315561 0)
(37.2566 -8.92941e-05 0)
(37.2592 -6.83104e-05 0)
(5.34192 -3.23011 0)
(15.0496 -2.3842 0)
(22.4297 -1.48196 0)
(27.4015 -0.863346 0)
(30.6269 -0.500771 0)
(32.734 -0.296792 0)
(34.1441 -0.180736 0)
(35.1118 -0.112579 0)
(35.7884 -0.0710946 0)
(36.2661 -0.0450494 0)
(36.6029 -0.0283489 0)
(36.8377 -0.0175439 0)
(36.9982 -0.01058 0)
(37.1047 -0.00616132 0)
(37.1727 -0.00343271 0)
(37.2141 -0.00180875 0)
(37.2377 -0.000881151 0)
(37.2506 -0.000431038 0)
(37.2566 -0.000121889 0)
(37.2592 -9.33265e-05 0)
(5.38748 -4.29271 0)
(15.1386 -3.15876 0)
(22.4998 -1.95998 0)
(27.4422 -1.14146 0)
(30.648 -0.66231 0)
(32.7447 -0.392713 0)
(34.1496 -0.239243 0)
(35.1147 -0.149064 0)
(35.7901 -0.094153 0)
(36.267 -0.0596679 0)
(36.6034 -0.0375513 0)
(36.838 -0.0232401 0)
(36.9984 -0.0140157 0)
(37.1048 -0.00816229 0)
(37.1728 -0.00454763 0)
(37.2141 -0.00239625 0)
(37.2378 -0.00116732 0)
(37.2506 -0.000571119 0)
(37.2566 -0.000161383 0)
(37.2592 -0.000123705 0)
(5.46096 -5.59669 0)
(15.2814 -4.09792 0)
(22.6114 -2.53569 0)
(27.5067 -1.47603 0)
(30.6814 -0.856902 0)
(32.7616 -0.50847 0)
(34.1583 -0.309954 0)
(35.1193 -0.193208 0)
(35.7926 -0.122072 0)
(36.2685 -0.0773768 0)
(36.6042 -0.0487026 0)
(36.8385 -0.0301441 0)
(36.9987 -0.0181804 0)
(37.105 -0.0105881 0)
(37.1728 -0.00589934 0)
(37.2142 -0.00310856 0)
(37.2378 -0.00151426 0)
(37.2506 -0.000741017 0)
(37.2566 -0.000209197 0)
(37.2592 -0.000160614 0)
(5.57831 -7.20738 0)
(15.5076 -5.2358 0)
(22.7862 -3.22589 0)
(27.6072 -1.87647 0)
(30.7333 -1.09032 0)
(32.7879 -0.647726 0)
(34.1719 -0.395222 0)
(35.1266 -0.246531 0)
(35.7966 -0.155836 0)
(36.2707 -0.0988089 0)
(36.6055 -0.0622051 0)
(36.8393 -0.0385065 0)
(36.9991 -0.023226 0)
(37.1052 -0.0135274 0)
(37.173 -0.00753736 0)
(37.2142 -0.00397181 0)
(37.2378 -0.00193466 0)
(37.2506 -0.000947025 0)
(37.2566 -0.000267006 0)
(37.2592 -0.000205488 0)
(5.76555 -9.21688 0)
(15.864 -6.61214 0)
(23.0566 -4.04731 0)
(27.7612 -2.35198 0)
(30.8127 -1.36852 0)
(32.8282 -0.814453 0)
(34.1927 -0.497692 0)
(35.1377 -0.310781 0)
(35.8028 -0.196592 0)
(36.2742 -0.12471 0)
(36.6076 -0.0785357 0)
(36.8404 -0.0486256 0)
(36.9998 -0.0293336 0)
(37.1056 -0.0170862 0)
(37.1732 -0.00952089 0)
(37.2143 -0.00501725 0)
(37.2379 -0.00244368 0)
(37.2507 -0.00119672 0)
(37.2566 -0.000336758 0)
(37.2592 -0.000260108 0)
(6.06679 -11.7624 0)
(16.4263 -8.2706 0)
(23.4712 -5.0131 0)
(27.9943 -2.90969 0)
(30.9326 -1.69683 0)
(32.889 -1.01263 0)
(34.2243 -0.620198 0)
(35.1546 -0.387909 0)
(35.8122 -0.245651 0)
(36.2796 -0.155944 0)
(36.6106 -0.0982522 0)
(36.8422 -0.0608523 0)
(37.0008 -0.0367172 0)
(37.1062 -0.02139 0)
(37.1735 -0.0119202 0)
(37.2145 -0.00628203 0)
(37.2379 -0.0030593 0)
(37.2507 -0.00149919 0)
(37.2566 -0.000420664 0)
(37.2593 -0.000326698 0)
(6.56084 -15.0631 0)
(17.3223 -10.2509 0)
(24.1028 -6.12515 0)
(28.3424 -3.55101 0)
(31.1109 -2.07844 0)
(32.9798 -1.24564 0)
(34.2715 -0.765523 0)
(35.18 -0.479976 0)
(35.8263 -0.304458 0)
(36.2876 -0.193488 0)
(36.6153 -0.121994 0)
(36.8449 -0.0755928 0)
(37.0024 -0.0456259 0)
(37.107 -0.0265855 0)
(37.174 -0.0148176 0)
(37.2148 -0.0078098 0)
(37.2381 -0.00380258 0)
(37.2508 -0.00186528 0)
(37.2566 -0.000521123 0)
(37.2593 -0.000408083 0)
(7.39874 -19.4995 0)
(18.7772 -12.5617 0)
(25.0588 -7.35765 0)
(28.8545 -4.26491 0)
(31.3718 -2.51166 0)
(33.1132 -1.51509 0)
(34.3414 -0.935912 0)
(35.2178 -0.588956 0)
(35.8473 -0.374511 0)
(36.2996 -0.238398 0)
(36.6223 -0.150472 0)
(36.849 -0.0933051 0)
(37.0047 -0.0563435 0)
(37.1084 -0.0328409 0)
(37.1747 -0.0183081 0)
(37.2151 -0.00965093 0)
(37.2383 -0.00469763 0)
(37.2508 -0.0023078 0)
(37.2567 -0.000640532 0)
(37.2593 -0.000507916 0)
(8.89659 -25.8026 0)
(21.217 -15.0876 0)
(26.4901 -8.6229 0)
(29.5914 -5.0166 0)
(31.7459 -2.98543 0)
(33.3059 -1.81889 0)
(34.4433 -1.1322 0)
(35.2733 -0.716338 0)
(35.8785 -0.457183 0)
(36.3175 -0.29173 0)
(36.6326 -0.18443 0)
(36.855 -0.114483 0)
(37.0082 -0.069181 0)
(37.1103 -0.0403427 0)
(37.1758 -0.0224973 0)
(37.2157 -0.011862 0)
(37.2385 -0.00577123 0)
(37.251 -0.00284171 0)
(37.2567 -0.000780863 0)
(37.2593 -0.000631048 0)
(11.7915 -35.5572 0)
(25.5173 -17.2621 0)
(28.576 -9.70822 0)
(30.6147 -5.73152 0)
(32.2664 -3.47305 0)
(33.578 -2.14828 0)
(34.5892 -1.3524 0)
(35.3538 -0.862446 0)
(35.924 -0.553388 0)
(36.3437 -0.354383 0)
(36.648 -0.224567 0)
(36.864 -0.139619 0)
(37.0133 -0.0844581 0)
(37.1132 -0.0492863 0)
(37.1774 -0.0275084 0)
(37.2166 -0.0145374 0)
(37.2389 -0.00720825 0)
(37.2512 -0.00337388 0)
(37.2568 -0.00131004 0)
(37.2594 -0.000415533 0)
)
;

boundaryField
{
    inlet
    {
        type            fixedValue;
        value           uniform (41.92 0 0);
    }
    outlet
    {
        type            zeroGradient;
    }
    frontAndBack
    {
        type            empty;
    }
    noslipwall
    {
        type            noSlip;
    }
}


// ************************************************************************* //
