/*--------------------------------*- C++ -*----------------------------------*\
  =========                 |
  \\      /  F ield         | OpenFOAM: The Open Source CFD Toolbox
   \\    /   O peration     | Website:  https://openfoam.org
    \\  /    A nd           | Version:  7
     \\/     M anipulation  |
\*---------------------------------------------------------------------------*/
FoamFile
{
    version     2.0;
    format      ascii;
    class       volVectorField;
    location    "0";
    object      U4;
}
// * * * * * * * * * * * * * * * * * * * * * * * * * * * * * * * * * * * * * //

dimensions      [0 1 -1 0 0 0 0];

internalField   nonuniform List<vector> 
900
(
(47.24 8.29195e-09 0)
(47.24 -1.38062e-07 0)
(47.2412 -4.93211e-06 0)
(47.2556 -8.92869e-05 0)
(47.3446 -0.00078745 0)
(47.6691 -0.00399349 0)
(48.4989 -0.0144071 0)
(50.2704 -0.0455874 0)
(54.1573 -0.159486 0)
(67.1347 -0.939119 0)
(47.24 1.74543e-08 0)
(47.24 -4.3803e-07 0)
(47.2412 -1.62509e-05 0)
(47.2556 -0.00029383 0)
(47.3446 -0.00259141 0)
(47.6689 -0.0131409 0)
(48.4976 -0.0473947 0)
(50.2632 -0.149806 0)
(54.0871 -0.520521 0)
(64.6281 -2.81057 0)
(47.24 1.94683e-08 0)
(47.24 -8.08806e-07 0)
(47.2412 -3.08756e-05 0)
(47.2556 -0.000557744 0)
(47.3444 -0.00491875 0)
(47.668 -0.0249367 0)
(48.4938 -0.0898701 0)
(50.2424 -0.283237 0)
(53.909 -0.968289 0)
(61.9492 -4.58776 0)
(47.24 2.21021e-08 0)
(47.24 -1.2867e-06 0)
(47.2412 -4.97231e-05 0)
(47.2556 -0.000897826 0)
(47.3441 -0.0079167 0)
(47.6662 -0.0401144 0)
(48.4852 -0.144333 0)
(50.1973 -0.452085 0)
(53.5815 -1.50048 0)
(59.2099 -6.09861 0)
(47.24 2.55342e-08 0)
(47.24 -1.90126e-06 0)
(47.2412 -7.39566e-05 0)
(47.2555 -0.001335 0)
(47.3434 -0.0117677 0)
(47.6626 -0.0595663 0)
(48.4684 -0.213638 0)
(50.1124 -0.661486 0)
(53.0692 -2.09491 0)
(56.5446 -7.17159 0)
(47.24 3.00402e-08 0)
(47.24 -2.68845e-06 0)
(47.2412 -0.000104987 0)
(47.2553 -0.00189456 0)
(47.3421 -0.0166899 0)
(47.6558 -0.0843205 0)
(48.4376 -0.300669 0)
(49.9667 -0.912698 0)
(52.3563 -2.70147 0)
(54.0845 -7.68553 0)
(47.24 3.60389e-08 0)
(47.24 -3.68969e-06 0)
(47.2412 -0.000144431 0)
(47.255 -0.00260533 0)
(47.3398 -0.022926 0)
(47.6437 -0.115434 0)
(48.3841 -0.407503 0)
(49.7366 -1.19854 0)
(51.461 -3.24135 0)
(51.9284 -7.61724 0)
(47.24 4.41863e-08 0)
(47.24 -4.9475e-06 0)
(47.2411 -0.000193929 0)
(47.2544 -0.00349607 0)
(47.3357 -0.0307049 0)
(47.6228 -0.153701 0)
(48.2962 -0.533721 0)
(49.4021 -1.49786 0)
(50.4413 -3.62095 0)
(50.127 -7.05703 0)
(47.24 5.55984e-08 0)
(47.24 -6.4931e-06 0)
(47.2411 -0.000254629 0)
(47.2535 -0.00458582 0)
(47.3288 -0.040144 0)
(47.5882 -0.199009 0)
(48.1596 -0.673533 0)
(48.9568 -1.77219 0)
(49.3858 -3.7622 0)
(48.6877 -6.17302 0)
(47.24 7.22824e-08 0)
(47.24 -8.3171e-06 0)
(47.2409 -0.000325979 0)
(47.2519 -0.00586142 0)
(47.3173 -0.0510329 0)
(47.5331 -0.249078 0)
(47.9607 -0.811911 0)
(48.4178 -1.96991 0)
(48.3927 -3.63844 0)
(47.594 -5.1408 0)
(47.24 2.53779e-07 0)
(47.24 -1.14282e-05 0)
(47.2406 -0.00043702 0)
(47.2475 -0.00781725 0)
(47.2857 -0.0667359 0)
(47.388 -0.308714 0)
(47.4925 -0.903604 0)
(47.3845 -1.87919 0)
(46.9228 -2.94446 0)
(46.2641 -3.67797 0)
(47.24 3.57837e-07 0)
(47.24 -1.34062e-05 0)
(47.24 -0.000507942 0)
(47.2395 -0.00902688 0)
(47.2337 -0.0753868 0)
(47.1912 -0.328763 0)
(47.0253 -0.854878 0)
(46.6599 -1.50524 0)
(46.1591 -2.01475 0)
(45.6789 -2.28995 0)
(47.24 2.46167e-07 0)
(47.24 -1.22566e-05 0)
(47.2395 -0.000469633 0)
(47.2336 -0.00830092 0)
(47.1969 -0.0682491 0)
(47.0664 -0.286255 0)
(46.7724 -0.693884 0)
(46.3294 -1.12374 0)
(45.8551 -1.4114 0)
(45.46 -1.55381 0)
(47.24 1.71806e-07 0)
(47.24 -1.00465e-05 0)
(47.2392 -0.000387474 0)
(47.2297 -0.0068249 0)
(47.1737 -0.0555666 0)
(46.9924 -0.227623 0)
(46.635 -0.529952 0)
(46.1655 -0.821458 0)
(45.714 -1.00186 0)
(45.3609 -1.08807 0)
(47.24 1.20207e-07 0)
(47.24 -7.67458e-06 0)
(47.239 -0.000297745 0)
(47.2274 -0.005233 0)
(47.1599 -0.0423604 0)
(46.9501 -0.171165 0)
(46.5602 -0.389542 0)
(46.0804 -0.589833 0)
(45.6432 -0.708918 0)
(45.3117 -0.764911 0)
(47.24 8.2943e-08 0)
(47.24 -5.53076e-06 0)
(47.2389 -0.000216188 0)
(47.226 -0.00379419 0)
(47.1522 -0.0306138 0)
(46.9266 -0.122754 0)
(46.5198 -0.275882 0)
(46.0357 -0.412527 0)
(45.6066 -0.492093 0)
(45.2864 -0.529211 0)
(47.24 5.52068e-08 0)
(47.24 -3.73572e-06 0)
(47.2388 -0.000147758 0)
(47.2253 -0.00259033 0)
(47.148 -0.0208643 0)
(46.9141 -0.0833153 0)
(46.4985 -0.185994 0)
(46.0125 -0.276293 0)
(45.5878 -0.328308 0)
(45.2735 -0.352478 0)
(47.24 3.41468e-08 0)
(47.24 -2.28972e-06 0)
(47.2388 -9.25961e-05 0)
(47.2249 -0.00162123 0)
(47.1458 -0.013048 0)
(46.9078 -0.0519933 0)
(46.4879 -0.115678 0)
(46.001 -0.171273 0)
(45.5785 -0.203126 0)
(45.2671 -0.217899 0)
(47.24 1.79685e-08 0)
(47.24 -1.14851e-06 0)
(47.2388 -4.9059e-05 0)
(47.2248 -0.000856854 0)
(47.1449 -0.00689481 0)
(46.905 -0.0274471 0)
(46.4832 -0.060972 0)
(45.9959 -0.0901394 0)
(45.5744 -0.10681 0)
(45.2643 -0.114536 0)
(47.24 5.46139e-09 0)
(47.24 -3.23657e-07 0)
(47.2388 -1.49698e-05 0)
(47.2247 -0.000260621 0)
(47.1446 -0.00209747 0)
(46.904 -0.00834639 0)
(46.4816 -0.0185306 0)
(45.9941 -0.0273802 0)
(45.573 -0.0324339 0)
(45.2633 -0.034775 0)
(45.6516 -4.00752 0)
(45.0582 -4.13279 0)
(44.3982 -4.06553 0)
(43.7347 -3.79223 0)
(43.135 -3.35383 0)
(42.6489 -2.82137 0)
(42.297 -2.26734 0)
(42.0725 -1.74749 0)
(41.9508 -1.29521 0)
(41.901 -0.924273 0)
(41.8944 -0.634729 0)
(41.909 -0.418599 0)
(41.9303 -0.264183 0)
(41.9505 -0.158808 0)
(41.9663 -0.0904226 0)
(41.9771 -0.0484687 0)
(41.9837 -0.0242796 0)
(41.9874 -0.011184 0)
(41.9892 -0.00467687 0)
(41.99 -0.00102419 0)
(45.3024 -2.4082 0)
(44.957 -2.46133 0)
(44.5679 -2.45634 0)
(44.1514 -2.37728 0)
(43.7309 -2.21889 0)
(43.3329 -1.98947 0)
(42.9805 -1.70923 0)
(42.6884 -1.40496 0)
(42.4616 -1.10382 0)
(42.2959 -0.828106 0)
(42.1812 -0.59247 0)
(42.1057 -0.403473 0)
(42.0579 -0.260838 0)
(42.0288 -0.159522 0)
(42.0116 -0.0918957 0)
(42.0017 -0.0496133 0)
(41.9962 -0.0249411 0)
(41.9934 -0.0115296 0)
(41.9919 -0.0047488 0)
(41.9914 -0.00114828 0)
(45.1691 -1.61465 0)
(44.9082 -1.64369 0)
(44.6142 -1.64559 0)
(44.2927 -1.61104 0)
(43.9545 -1.53337 0)
(43.6138 -1.41111 0)
(43.2872 -1.24954 0)
(42.9895 -1.06037 0)
(42.732 -0.859451 0)
(42.5202 -0.663466 0)
(42.3543 -0.486568 0)
(42.2305 -0.338144 0)
(42.1421 -0.222079 0)
(42.082 -0.137404 0)
(42.043 -0.0797962 0)
(42.019 -0.0433052 0)
(42.0051 -0.0218346 0)
(41.9976 -0.0101121 0)
(41.9939 -0.00415208 0)
(41.9924 -0.00102833 0)
(45.1081 -1.12489 0)
(44.8838 -1.14295 0)
(44.6311 -1.14539 0)
(44.3526 -1.12645 0)
(44.0542 -1.08119 0)
(43.7451 -1.00699 0)
(43.4372 -0.904975 0)
(43.1438 -0.780696 0)
(42.8768 -0.643508 0)
(42.6453 -0.504795 0)
(42.4544 -0.375547 0)
(42.3048 -0.264154 0)
(42.1934 -0.175152 0)
(42.1149 -0.109148 0)
(42.0627 -0.0637068 0)
(42.03 -0.0346875 0)
(42.0108 -0.0175231 0)
(42.0003 -0.00812476 0)
(41.9951 -0.00333094 0)
(41.9931 -0.000835236 0)
(45.0776 -0.788847 0)
(44.871 -0.800741 0)
(44.6384 -0.802748 0)
(44.3811 -0.79112 0)
(44.103 -0.76239 0)
(43.8109 -0.714301 0)
(43.5144 -0.646829 0)
(43.2252 -0.562876 0)
(42.9551 -0.468226 0)
(42.7145 -0.370585 0)
(42.5109 -0.277946 0)
(42.3475 -0.196862 0)
(42.2233 -0.13126 0)
(42.1344 -0.0821405 0)
(42.0744 -0.048086 0)
(42.0365 -0.0262335 0)
(42.0141 -0.0132678 0)
(42.0019 -0.00615589 0)
(41.9959 -0.0025223 0)
(41.9934 -0.000635988 0)
(45.0619 -0.545085 0)
(44.8643 -0.553028 0)
(44.6419 -0.554504 0)
(44.3955 -0.547032 0)
(44.128 -0.528234 0)
(43.8449 -0.496429 0)
(43.5548 -0.451324 0)
(43.2683 -0.394567 0)
(42.9971 -0.329844 0)
(42.7522 -0.262336 0)
(42.5421 -0.197642 0)
(42.3712 -0.140526 0)
(42.2401 -0.0939906 0)
(42.1453 -0.058957 0)
(42.081 -0.0345722 0)
(42.0402 -0.0188821 0)
(42.0161 -0.00955616 0)
(42.0029 -0.00443545 0)
(41.9963 -0.00181691 0)
(41.9937 -0.000459359 0)
(45.0539 -0.362818 0)
(44.8608 -0.36801 0)
(44.6436 -0.369021 0)
(44.4027 -0.364235 0)
(44.1407 -0.35208 0)
(43.8624 -0.3314 0)
(43.5757 -0.30191 0)
(43.2908 -0.264583 0)
(43.0192 -0.221759 0)
(42.7722 -0.17683 0)
(42.5586 -0.133542 0)
(42.3839 -0.0951474 0)
(42.2491 -0.0637462 0)
(42.1512 -0.0400369 0)
(42.0846 -0.023499 0)
(42.0422 -0.0128421 0)
(42.0171 -0.00650169 0)
(42.0034 -0.00301832 0)
(41.9965 -0.00123625 0)
(41.9938 -0.000312962 0)
(45.0499 -0.22422 0)
(44.8591 -0.227399 0)
(44.6444 -0.228032 0)
(44.4063 -0.225131 0)
(44.1469 -0.217729 0)
(43.871 -0.205099 0)
(43.586 -0.18704 0)
(43.3019 -0.164113 0)
(43.0302 -0.137731 0)
(42.7821 -0.10997 0)
(42.5669 -0.0831503 0)
(42.3903 -0.059306 0)
(42.2536 -0.0397674 0)
(42.1542 -0.0249928 0)
(42.0864 -0.0146759 0)
(42.0432 -0.00802279 0)
(42.0176 -0.00406253 0)
(42.0036 -0.00188613 0)
(41.9966 -0.00077245 0)
(41.9938 -0.000195663 0)
(45.0481 -0.117841 0)
(44.8583 -0.119505 0)
(44.6448 -0.11984 0)
(44.4078 -0.118329 0)
(44.1497 -0.114464 0)
(43.8748 -0.107862 0)
(43.5906 -0.0984105 0)
(43.3069 -0.0863954 0)
(43.0351 -0.07255 0)
(42.7865 -0.0579616 0)
(42.5706 -0.04385 0)
(42.3931 -0.0312906 0)
(42.2556 -0.02099 0)
(42.1555 -0.0131956 0)
(42.0872 -0.00775016 0)
(42.0437 -0.00423732 0)
(42.0179 -0.00214583 0)
(42.0037 -0.000996251 0)
(41.9967 -0.000407948 0)
(41.9939 -0.000103345 0)
(45.0475 -0.0357768 0)
(44.858 -0.0362812 0)
(44.6449 -0.0363829 0)
(44.4084 -0.0359257 0)
(44.1506 -0.0347553 0)
(43.8761 -0.0327549 0)
(43.5921 -0.0298896 0)
(43.3086 -0.0262456 0)
(43.0368 -0.0220444 0)
(42.788 -0.0176155 0)
(42.5719 -0.0133295 0)
(42.3941 -0.00951333 0)
(42.2563 -0.00638253 0)
(42.156 -0.00401291 0)
(42.0875 -0.00235706 0)
(42.0438 -0.00128876 0)
(42.0179 -0.000652655 0)
(42.0038 -0.000302993 0)
(41.9967 -0.000124049 0)
(41.9939 -3.14204e-05 0)
(56.0148 -43.9772 0)
(34.0016 -20.3757 0)
(33.9947 -11.5248 0)
(35.3559 -6.91042 0)
(36.8067 -4.24753 0)
(38.0785 -2.65666 0)
(39.1102 -1.68595 0)
(39.9142 -1.08118 0)
(40.5253 -0.69637 0)
(40.9807 -0.447073 0)
(41.3133 -0.283775 0)
(41.5508 -0.176629 0)
(41.7155 -0.106924 0)
(41.826 -0.0624277 0)
(41.897 -0.0348651 0)
(41.9404 -0.0184574 0)
(41.9653 -0.00928628 0)
(41.9789 -0.0041749 0)
(41.9851 -0.00201308 0)
(41.9879 -0.000173404 0)
(55.0837 -38.0842 0)
(36.0801 -20.0604 0)
(34.8308 -11.6328 0)
(35.7648 -7.06161 0)
(37.022 -4.3782 0)
(38.1951 -2.75581 0)
(39.1747 -1.75685 0)
(39.9506 -1.13025 0)
(40.5462 -0.729549 0)
(40.9929 -0.469056 0)
(41.3205 -0.298016 0)
(41.555 -0.18562 0)
(41.718 -0.112416 0)
(41.8274 -0.0656577 0)
(41.8978 -0.0366872 0)
(41.9408 -0.019476 0)
(41.9655 -0.00985816 0)
(41.9789 -0.00432563 0)
(41.9852 -0.00232086 0)
(41.988 7.4163e-05 0)
(53.9953 -32.0416 0)
(38.195 -19.357 0)
(35.8574 -11.6692 0)
(36.2885 -7.21501 0)
(37.303 -4.52782 0)
(38.3494 -2.87475 0)
(39.2608 -1.84401 0)
(39.9995 -1.19144 0)
(40.5745 -0.771307 0)
(41.0095 -0.496882 0)
(41.3303 -0.316112 0)
(41.5607 -0.19707 0)
(41.7213 -0.119423 0)
(41.8293 -0.0697816 0)
(41.8988 -0.0390119 0)
(41.9414 -0.020761 0)
(41.9657 -0.0105596 0)
(41.9791 -0.0045411 0)
(41.9852 -0.00264561 0)
(41.988 0.000307108 0)
(52.7724 -26.1832 0)
(40.2075 -18.1848 0)
(37.0686 -11.5709 0)
(36.9483 -7.34747 0)
(37.6676 -4.68978 0)
(38.5532 -3.01311 0)
(39.3761 -1.94906 0)
(40.0656 -1.26671 0)
(40.613 -0.82333 0)
(41.0321 -0.531826 0)
(41.3437 -0.338955 0)
(41.5686 -0.211566 0)
(41.7259 -0.128313 0)
(41.8319 -0.0750172 0)
(41.9002 -0.0419504 0)
(41.9421 -0.022317 0)
(41.9661 -0.0113158 0)
(41.9792 -0.00491896 0)
(41.9853 -0.00274379 0)
(41.988 0.000219083 0)
(51.4671 -20.8524 0)
(41.9673 -16.5305 0)
(38.4219 -11.2619 0)
(37.7572 -7.42074 0)
(38.1345 -4.84918 0)
(38.8214 -3.16663 0)
(39.5306 -2.07205 0)
(40.1555 -1.3575 0)
(40.6658 -0.887208 0)
(41.0634 -0.575222 0)
(41.3623 -0.367532 0)
(41.5796 -0.229789 0)
(41.7323 -0.139525 0)
(41.8355 -0.0816345 0)
(41.9022 -0.0456696 0)
(41.9431 -0.024288 0)
(41.9666 -0.0122757 0)
(41.9795 -0.00539558 0)
(41.9854 -0.00287161 0)
(41.9881 0.000110972 0)
(50.1599 -16.3108 0)
(43.3507 -14.4811 0)
(39.8307 -10.6724 0)
(38.7086 -7.38091 0)
(38.7191 -4.97906 0)
(39.1701 -3.32431 0)
(39.7369 -2.20966 0)
(40.2776 -1.46371 0)
(40.7385 -0.963922 0)
(41.1069 -0.628195 0)
(41.3883 -0.402785 0)
(41.595 -0.252427 0)
(41.7413 -0.153519 0)
(41.8406 -0.0899192 0)
(41.905 -0.0503354 0)
(41.9446 -0.0267635 0)
(41.9674 -0.0134845 0)
(41.9798 -0.00599137 0)
(41.9856 -0.00303724 0)
(41.9882 -1.98694e-05 0)
(48.9437 -12.661 0)
(44.3017 -12.2202 0)
(41.1743 -9.77153 0)
(39.7636 -7.16643 0)
(39.4248 -5.03843 0)
(39.6141 -3.46506 0)
(40.0092 -2.35275 0)
(40.4431 -1.58219 0)
(40.8389 -1.05294 0)
(41.1677 -0.691166 0)
(41.4249 -0.445343 0)
(41.6169 -0.280036 0)
(41.7541 -0.170703 0)
(41.8479 -0.10014 0)
(41.909 -0.0561084 0)
(41.9467 -0.0298322 0)
(41.9684 -0.0149877 0)
(41.9803 -0.00672621 0)
(41.9858 -0.00324974 0)
(41.9883 -0.000175206 0)
(47.8965 -9.83183 0)
(44.8507 -9.97044 0)
(42.3304 -8.59556 0)
(40.8457 -6.72834 0)
(40.2316 -4.97619 0)
(40.1595 -3.55548 0)
(40.3609 -2.48327 0)
(40.6647 -1.70433 0)
(40.9768 -1.15065 0)
(41.2527 -0.762889 0)
(41.4768 -0.494966 0)
(41.6481 -0.312732 0)
(41.7724 -0.191266 0)
(41.8584 -0.112454 0)
(41.9148 -0.0630958 0)
(41.9498 -0.0335566 0)
(41.97 -0.0168189 0)
(41.981 -0.00761391 0)
(41.9862 -0.00351724 0)
(41.9885 -0.000354938 0)
(47.0569 -7.64277 0)
(45.0942 -7.91042 0)
(43.2171 -7.24765 0)
(41.8536 -6.05707 0)
(41.0872 -4.74538 0)
(40.794 -3.55268 0)
(40.7987 -2.57231 0)
(40.9545 -1.81326 0)
(41.1635 -1.24802 0)
(41.3708 -0.83884 0)
(41.5501 -0.549525 0)
(41.6926 -0.349574 0)
(41.7989 -0.21482 0)
(41.8736 -0.126717 0)
(41.9233 -0.071246 0)
(41.9542 -0.0379202 0)
(41.9722 -0.0189744 0)
(41.982 -0.00865037 0)
(41.9867 -0.00384238 0)
(41.9887 -0.000555559 0)
(46.4232 -5.89446 0)
(45.1469 -6.11609 0)
(43.8161 -5.85561 0)
(42.6904 -5.19776 0)
(41.9106 -4.32676 0)
(41.4785 -3.4164 0)
(41.3141 -2.58265 0)
(41.3186 -1.88198 0)
(41.4096 -1.32778 0)
(41.5316 -0.908811 0)
(41.6522 -0.603303 0)
(41.7558 -0.387481 0)
(41.8369 -0.239751 0)
(41.8957 -0.142097 0)
(41.9355 -0.0801416 0)
(41.9607 -0.0427185 0)
(41.9755 -0.0213587 0)
(41.9836 -0.00978951 0)
(41.9874 -0.00421185 0)
(41.9891 -0.000765043 0)
(5.9533 -0.202446 0)
(16.8289 -0.150034 0)
(25.1726 -0.0934746 0)
(30.8188 -0.0544794 0)
(34.4825 -0.0315861 0)
(36.8725 -0.0187086 0)
(38.4691 -0.011387 0)
(39.5634 -0.00709025 0)
(40.3279 -0.00447641 0)
(40.8672 -0.00283602 0)
(41.2473 -0.00178447 0)
(41.5123 -0.00110425 0)
(41.6933 -0.000665894 0)
(41.8135 -0.000387764 0)
(41.8902 -0.000216 0)
(41.9368 -0.0001138 0)
(41.9635 -5.54592e-05 0)
(41.978 -2.70772e-05 0)
(41.9847 -7.72508e-06 0)
(41.9877 -5.86932e-06 0)
(5.95517 -0.650618 0)
(16.8326 -0.482117 0)
(25.1756 -0.300349 0)
(30.8205 -0.175049 0)
(34.4834 -0.101491 0)
(36.8729 -0.060115 0)
(38.4693 -0.0365897 0)
(39.5635 -0.0227832 0)
(40.328 -0.0143842 0)
(40.8672 -0.00911313 0)
(41.2473 -0.00573416 0)
(41.5123 -0.00354837 0)
(41.6933 -0.00213977 0)
(41.8135 -0.00124605 0)
(41.8902 -0.000694146 0)
(41.9368 -0.000365729 0)
(41.9635 -0.000178208 0)
(41.978 -8.70739e-05 0)
(41.9847 -2.47548e-05 0)
(41.9877 -1.88608e-05 0)
(5.96018 -1.19476 0)
(16.8424 -0.88506 0)
(25.1834 -0.551275 0)
(30.825 -0.321282 0)
(34.4858 -0.186282 0)
(36.8741 -0.110343 0)
(38.4699 -0.0671643 0)
(39.5638 -0.0418222 0)
(40.3282 -0.0264051 0)
(40.8673 -0.0167292 0)
(41.2474 -0.0105264 0)
(41.5123 -0.0065139 0)
(41.6934 -0.00392811 0)
(41.8135 -0.00228747 0)
(41.8902 -0.00127436 0)
(41.9368 -0.000671455 0)
(41.9635 -0.000327142 0)
(41.978 -0.000159937 0)
(41.9847 -4.53479e-05 0)
(41.9877 -3.46258e-05 0)
(5.97032 -1.85589 0)
(16.8624 -1.37397 0)
(25.1992 -0.855493 0)
(30.8343 -0.498545 0)
(34.4905 -0.28908 0)
(36.8765 -0.171251 0)
(38.4712 -0.104247 0)
(39.5645 -0.0649165 0)
(40.3285 -0.0409876 0)
(40.8675 -0.0259687 0)
(41.2475 -0.0163404 0)
(41.5124 -0.0101118 0)
(41.6934 -0.00609783 0)
(41.8135 -0.003551 0)
(41.8902 -0.00197833 0)
(41.9368 -0.00104239 0)
(41.9635 -0.000507841 0)
(41.978 -0.000248344 0)
(41.9847 -7.0329e-05 0)
(41.9877 -5.3758e-05 0)
(5.98865 -2.66009 0)
(16.8984 -1.96715 0)
(25.2278 -1.22405 0)
(30.8509 -0.713239 0)
(34.4992 -0.413619 0)
(36.8809 -0.24507 0)
(38.4734 -0.149204 0)
(39.5657 -0.0929217 0)
(40.3292 -0.0586738 0)
(40.8679 -0.037176 0)
(41.2477 -0.0233932 0)
(41.5125 -0.0144765 0)
(41.6935 -0.00873002 0)
(41.8135 -0.00508387 0)
(41.8902 -0.00283238 0)
(41.9369 -0.00149241 0)
(41.9635 -0.000727061 0)
(41.978 -0.000355608 0)
(41.9847 -0.000100626 0)
(41.9877 -7.69796e-05 0)
(6.01985 -3.64004 0)
(16.9595 -2.68677 0)
(25.2762 -1.67003 0)
(30.879 -0.972912 0)
(34.5137 -0.564323 0)
(36.8883 -0.334457 0)
(38.4772 -0.203673 0)
(39.5677 -0.126867 0)
(40.3303 -0.0801171 0)
(40.8685 -0.0507665 0)
(41.2481 -0.0319467 0)
(41.5127 -0.0197704 0)
(41.6936 -0.0119227 0)
(41.8136 -0.00694324 0)
(41.8902 -0.00386835 0)
(41.9369 -0.0020383 0)
(41.9635 -0.000992977 0)
(41.978 -0.00048574 0)
(41.9847 -0.000137358 0)
(41.9877 -0.00010517 0)
(6.0712 -4.83749 0)
(17.0598 -3.55963 0)
(25.3552 -2.20871 0)
(30.9248 -1.28632 0)
(34.5375 -0.746363 0)
(36.9003 -0.442552 0)
(38.4834 -0.269604 0)
(39.571 -0.167982 0)
(40.3321 -0.106102 0)
(40.8696 -0.0672403 0)
(41.2487 -0.0423169 0)
(41.5131 -0.0261895 0)
(41.6938 -0.0157944 0)
(41.8137 -0.00919815 0)
(41.8903 -0.00512476 0)
(41.9369 -0.00270036 0)
(41.9635 -0.00131546 0)
(41.978 -0.000643599 0)
(41.9848 -0.000181864 0)
(41.9877 -0.000139404 0)
(6.154 -6.30696 0)
(17.2207 -4.61798 0)
(25.481 -2.85749 0)
(30.9975 -1.66335 0)
(34.5751 -0.96565 0)
(36.9193 -0.572999 0)
(38.4933 -0.349289 0)
(39.5763 -0.217728 0)
(40.335 -0.137564 0)
(40.8712 -0.0871966 0)
(41.2496 -0.0548833 0)
(41.5136 -0.0339696 0)
(41.6941 -0.0204877 0)
(41.8139 -0.0119318 0)
(41.8904 -0.00664802 0)
(41.937 -0.00350306 0)
(41.9636 -0.00170643 0)
(41.978 -0.000835058 0)
(41.9848 -0.000235746 0)
(41.9877 -0.000180997 0)
(6.28625 -8.12206 0)
(17.4756 -5.90027 0)
(25.6779 -3.63529 0)
(31.1107 -2.11461 0)
(34.6336 -1.22869 0)
(36.949 -0.729928 0)
(38.5086 -0.445379 0)
(39.5844 -0.277818 0)
(40.3395 -0.175613 0)
(40.8738 -0.111349 0)
(41.2511 -0.0700994 0)
(41.5145 -0.0433933 0)
(41.6946 -0.0261736 0)
(41.8142 -0.0152442 0)
(41.8905 -0.00849392 0)
(41.937 -0.00447586 0)
(41.9636 -0.00218018 0)
(41.9781 -0.00106721 0)
(41.9848 -0.000300891 0)
(41.9878 -0.000231566 0)
(6.49725 -10.3866 0)
(17.8772 -7.45127 0)
(25.9826 -4.56095 0)
(31.2843 -2.65047 0)
(34.7231 -1.5422 0)
(36.9944 -0.917814 0)
(38.5321 -0.560854 0)
(39.597 -0.350222 0)
(40.3465 -0.221541 0)
(40.8777 -0.140537 0)
(41.2534 -0.0885025 0)
(41.5158 -0.0547966 0)
(41.6954 -0.0330563 0)
(41.8146 -0.0192546 0)
(41.8908 -0.0107292 0)
(41.9372 -0.00565398 0)
(41.9637 -0.0027538 0)
(41.9781 -0.0013486 0)
(41.9848 -0.000379495 0)
(41.9878 -0.000293118 0)
(6.83671 -13.2551 0)
(18.511 -9.32021 0)
(26.4499 -5.6493 0)
(31.547 -3.27896 0)
(34.8582 -1.91217 0)
(37.0629 -1.14115 0)
(38.5676 -0.698907 0)
(39.6161 -0.437138 0)
(40.357 -0.276826 0)
(40.8837 -0.175735 0)
(41.2568 -0.110721 0)
(41.5178 -0.0685749 0)
(41.6965 -0.0413769 0)
(41.8152 -0.0241045 0)
(41.8911 -0.013433 0)
(41.9373 -0.00707927 0)
(41.9638 -0.00344756 0)
(41.9781 -0.00168945 0)
(41.9848 -0.00047405 0)
(41.9878 -0.000368159 0)
(7.39346 -16.9747 0)
(19.5206 -11.5519 0)
(27.1617 -6.90248 0)
(31.9393 -4.00166 0)
(35.0591 -2.34222 0)
(37.1652 -1.40373 0)
(38.6209 -0.862675 0)
(39.6447 -0.540889 0)
(40.3729 -0.343097 0)
(40.8928 -0.218043 0)
(41.2621 -0.137477 0)
(41.5209 -0.0851862 0)
(41.6983 -0.0514162 0)
(41.8162 -0.0299594 0)
(41.8917 -0.0166981 0)
(41.9376 -0.00880093 0)
(41.9639 -0.00428516 0)
(41.9782 -0.002102 0)
(41.9848 -0.000587258 0)
(41.9878 -0.000459872 0)
(8.33771 -21.9741 0)
(21.1601 -14.1559 0)
(28.2389 -8.2914 0)
(32.5164 -4.80616 0)
(35.3532 -2.83041 0)
(37.3156 -1.70737 0)
(38.6996 -1.05469 0)
(39.6873 -0.663699 0)
(40.3967 -0.42204 0)
(40.9063 -0.268652 0)
(41.2699 -0.169568 0)
(41.5254 -0.105146 0)
(41.7009 -0.063494 0)
(41.8177 -0.0370087 0)
(41.8925 -0.0206315 0)
(41.9381 -0.0108757 0)
(41.9641 -0.0052938 0)
(41.9783 -0.00260068 0)
(41.9849 -0.000721821 0)
(41.9878 -0.000572374 0)
(10.0256 -29.0772 0)
(23.9096 -17.0023 0)
(29.8519 -9.71722 0)
(33.3468 -5.65325 0)
(35.7747 -3.3643 0)
(37.5327 -2.04972 0)
(38.8144 -1.27589 0)
(39.7498 -0.807247 0)
(40.4317 -0.515203 0)
(40.9265 -0.328753 0)
(41.2816 -0.207835 0)
(41.5322 -0.129011 0)
(41.7048 -0.0779607 0)
(41.8199 -0.0454625 0)
(41.8937 -0.0253524 0)
(41.9387 -0.0133674 0)
(41.9644 -0.00650365 0)
(41.9784 -0.00320234 0)
(41.9849 -0.000879961 0)
(41.9878 -0.000711134 0)
(13.288 -40.0697 0)
(28.7557 -19.4528 0)
(32.2025 -10.9403 0)
(34.5 -6.4589 0)
(36.3613 -3.9138 0)
(37.8393 -2.42092 0)
(38.9789 -1.52403 0)
(39.8405 -0.971897 0)
(40.483 -0.623618 0)
(40.9561 -0.399357 0)
(41.2989 -0.253066 0)
(41.5423 -0.157338 0)
(41.7106 -0.0951766 0)
(41.8232 -0.0555411 0)
(41.8955 -0.0309994 0)
(41.9396 -0.0163823 0)
(41.9649 -0.00812304 0)
(41.9787 -0.00380206 0)
(41.985 -0.00147629 0)
(41.9879 -0.000468267 0)
)
;

boundaryField
{
    inlet
    {
        type            fixedValue;
        value           uniform (47.24 0 0);
    }
    outlet
    {
        type            zeroGradient;
    }
    frontAndBack
    {
        type            empty;
    }
    noslipwall
    {
        type            noSlip;
    }
}


// ************************************************************************* //
