# Residuals   
# Time        	p             	p1            	p2            	p3            	p4            	Ux            	Uy            	U1x           	U1y           	U2x           	U2y           	U3x           	U3y           	U4x           	U4y           
1             	1.000000e+00	1.000000e+00	1.000000e+00	1.000000e+00	1.000000e+00	7.143508e-02	1.231407e-01	7.108806e-02	1.231257e-01	7.078505e-02	1.231117e-01	7.051607e-02	1.230990e-01	7.027827e-02	1.230872e-01
2             	1.957649e-01	2.413523e-01	2.393499e-01	2.375625e-01	2.359930e-01	5.224207e-02	6.785136e-02	5.290770e-02	7.182714e-02	5.243084e-02	7.186241e-02	5.203935e-02	7.189431e-02	5.170777e-02	7.192427e-02
3             	2.542943e-01	2.538103e-01	2.488127e-01	2.445140e-01	2.408615e-01	3.283708e-02	3.787097e-02	3.299347e-02	4.050314e-02	3.293762e-02	4.041300e-02	3.289302e-02	4.034378e-02	3.284505e-02	4.029246e-02
4             	1.883385e-01	1.827960e-01	1.789843e-01	1.757553e-01	1.730151e-01	2.797981e-02	4.514391e-02	2.778833e-02	4.458415e-02	2.772605e-02	4.453988e-02	2.767263e-02	4.450050e-02	2.762718e-02	4.446090e-02
5             	1.602891e-01	1.684057e-01	1.657099e-01	1.635285e-01	1.616257e-01	2.550791e-02	4.802335e-02	2.536329e-02	4.851924e-02	2.535499e-02	4.833056e-02	2.534189e-02	4.818091e-02	2.532808e-02	4.808071e-02
6             	1.256793e-01	1.356701e-01	1.339540e-01	1.324603e-01	1.311791e-01	2.202096e-02	4.081156e-02	2.212721e-02	4.214253e-02	2.214400e-02	4.208498e-02	2.215546e-02	4.202842e-02	2.216254e-02	4.197596e-02
7             	1.000611e-01	1.220441e-01	1.209473e-01	1.199754e-01	1.191203e-01	1.807438e-02	3.354002e-02	1.868106e-02	3.568499e-02	1.869717e-02	3.568129e-02	1.871044e-02	3.569300e-02	1.871933e-02	3.569816e-02
8             	1.143853e-01	1.302900e-01	1.294069e-01	1.286162e-01	1.279002e-01	1.599359e-02	3.050438e-02	1.623659e-02	3.145320e-02	1.625654e-02	3.146916e-02	1.626987e-02	3.148846e-02	1.627842e-02	3.150381e-02
9             	9.448705e-02	1.088158e-01	1.084950e-01	1.081907e-01	1.078991e-01	1.504303e-02	3.353484e-02	1.476180e-02	3.201141e-02	1.477285e-02	3.195973e-02	1.478263e-02	3.192054e-02	1.478939e-02	3.189289e-02
10            	6.592651e-02	7.582719e-02	7.565216e-02	7.549297e-02	7.531900e-02	1.411516e-02	3.283255e-02	1.365665e-02	3.211444e-02	1.366603e-02	3.204742e-02	1.367362e-02	3.199504e-02	1.367956e-02	3.195724e-02
11            	5.559069e-02	6.227131e-02	6.196549e-02	6.167427e-02	6.143021e-02	1.358596e-02	3.092130e-02	1.318745e-02	3.105368e-02	1.317270e-02	3.100223e-02	1.315949e-02	3.095986e-02	1.314813e-02	3.092770e-02
12            	4.592137e-02	5.008696e-02	4.978785e-02	4.956584e-02	4.941249e-02	1.266042e-02	2.820910e-02	1.233327e-02	2.884544e-02	1.232546e-02	2.884072e-02	1.231790e-02	2.883868e-02	1.231179e-02	2.884478e-02
13            	4.131318e-02	4.891814e-02	4.864252e-02	4.829141e-02	4.817500e-02	1.181762e-02	2.657115e-02	1.160237e-02	2.693570e-02	1.159145e-02	2.692144e-02	1.158112e-02	2.690648e-02	1.157124e-02	2.689490e-02
14            	4.276861e-02	4.901795e-02	4.876739e-02	4.864561e-02	4.858737e-02	1.103829e-02	2.669369e-02	1.089132e-02	2.628910e-02	1.087458e-02	2.625762e-02	1.086000e-02	2.623399e-02	1.084814e-02	2.622300e-02
15            	4.332645e-02	5.092846e-02	5.054759e-02	5.029472e-02	5.014231e-02	1.036520e-02	2.701532e-02	1.026980e-02	2.667121e-02	1.025821e-02	2.664578e-02	1.024747e-02	2.665004e-02	1.023425e-02	2.665789e-02
16            	4.396541e-02	4.918603e-02	4.885515e-02	4.865115e-02	4.854015e-02	9.918237e-03	2.838064e-02	9.815297e-03	2.796376e-02	9.797111e-03	2.794425e-02	9.782128e-03	2.794984e-02	9.767956e-03	2.795096e-02
17            	4.157117e-02	4.522688e-02	4.522860e-02	4.533487e-02	4.553572e-02	9.412353e-03	2.908045e-02	9.290814e-03	2.825485e-02	9.270582e-03	2.822682e-02	9.255508e-03	2.820171e-02	9.243481e-03	2.817954e-02
18            	3.500049e-02	4.067888e-02	4.076831e-02	4.089465e-02	4.079734e-02	8.863138e-03	2.939962e-02	8.779941e-03	2.886353e-02	8.764949e-03	2.884158e-02	8.752816e-03	2.882873e-02	8.740760e-03	2.880641e-02
19            	3.287690e-02	3.757805e-02	3.746414e-02	3.735021e-02	3.732942e-02	8.267439e-03	2.922458e-02	8.230217e-03	2.922179e-02	8.219738e-03	2.914019e-02	8.215007e-03	2.907139e-02	8.206998e-03	2.902658e-02
20            	3.108071e-02	3.515653e-02	3.503804e-02	3.488573e-02	3.482152e-02	7.841022e-03	2.950213e-02	7.776432e-03	2.953311e-02	7.769713e-03	2.945657e-02	7.772784e-03	2.939054e-02	7.768683e-03	2.933250e-02
21            	3.172977e-02	3.611143e-02	3.607099e-02	3.608967e-02	3.604861e-02	7.533381e-03	2.956814e-02	7.455179e-03	2.938653e-02	7.446903e-03	2.931328e-02	7.445132e-03	2.926788e-02	7.437381e-03	2.921077e-02
22            	3.094006e-02	3.541740e-02	3.541470e-02	3.546312e-02	3.539739e-02	7.262362e-03	3.040555e-02	7.194107e-03	2.981274e-02	7.179470e-03	2.971941e-02	7.171026e-03	2.965156e-02	7.161238e-03	2.957009e-02
23            	3.090068e-02	3.547619e-02	3.553619e-02	3.565810e-02	3.569795e-02	6.996907e-03	3.060467e-02	6.958497e-03	3.011271e-02	6.940896e-03	3.000844e-02	6.929888e-03	2.993715e-02	6.920345e-03	2.986051e-02
24            	2.981604e-02	3.400826e-02	3.379706e-02	3.384243e-02	3.390569e-02	6.725066e-03	3.048384e-02	6.714508e-03	2.998329e-02	6.702540e-03	2.988405e-02	6.695524e-03	2.981434e-02	6.688586e-03	2.975209e-02
25            	2.811446e-02	3.300464e-02	3.298629e-02	3.303258e-02	3.310809e-02	6.446697e-03	3.031537e-02	6.464440e-03	2.994597e-02	6.451834e-03	2.983002e-02	6.440988e-03	2.975401e-02	6.429148e-03	2.968701e-02
26            	2.407309e-02	3.015778e-02	2.977166e-02	3.012352e-02	3.040545e-02	6.176138e-03	2.951601e-02	6.206096e-03	2.888290e-02	6.191197e-03	2.873469e-02	6.180556e-03	2.859828e-02	6.168792e-03	2.847528e-02
27            	2.596197e-02	2.918755e-02	2.888094e-02	2.860902e-02	2.845510e-02	5.941441e-03	2.792046e-02	5.957767e-03	2.781773e-02	5.946259e-03	2.766742e-02	5.936803e-03	2.759792e-02	5.925910e-03	2.754053e-02
28            	2.510326e-02	2.656781e-02	2.624364e-02	2.591886e-02	2.645209e-02	5.743032e-03	2.826153e-02	5.778893e-03	2.801894e-02	5.768107e-03	2.787776e-02	5.761099e-03	2.777560e-02	5.745850e-03	2.763754e-02
29            	2.438434e-02	2.851772e-02	2.861261e-02	2.904774e-02	2.891324e-02	5.586734e-03	2.806620e-02	5.600678e-03	2.780198e-02	5.589679e-03	2.762666e-02	5.595037e-03	2.750518e-02	5.593529e-03	2.757249e-02
30            	2.635239e-02	2.970325e-02	2.962334e-02	2.968333e-02	3.036426e-02	5.487574e-03	2.844292e-02	5.499042e-03	2.779579e-02	5.478857e-03	2.761605e-02	5.468944e-03	2.747480e-02	5.487591e-03	2.764834e-02
31            	2.742716e-02	3.106698e-02	3.092340e-02	3.077496e-02	3.162282e-02	5.424504e-03	2.874010e-02	5.431277e-03	2.806200e-02	5.418352e-03	2.792699e-02	5.408578e-03	2.786535e-02	5.440543e-03	2.797667e-02
32            	2.949444e-02	3.315402e-02	3.313509e-02	3.319428e-02	3.396424e-02	5.365941e-03	2.910316e-02	5.379521e-03	2.858811e-02	5.372533e-03	2.848479e-02	5.361876e-03	2.845416e-02	5.378206e-03	2.853138e-02
33            	2.988624e-02	3.438134e-02	3.424679e-02	3.397680e-02	3.244882e-02	5.334800e-03	2.928588e-02	5.395098e-03	2.909211e-02	5.395616e-03	2.904559e-02	5.392379e-03	2.900745e-02	5.397392e-03	2.910300e-02
34            	3.257197e-02	4.001920e-02	3.989105e-02	3.992263e-02	4.023538e-02	5.358992e-03	2.913875e-02	5.421994e-03	2.878400e-02	5.421552e-03	2.870567e-02	5.418901e-03	2.857876e-02	5.407480e-03	2.818324e-02
35            	3.109777e-02	3.385298e-02	3.393793e-02	3.400937e-02	3.327046e-02	5.367036e-03	2.957764e-02	5.498400e-03	3.055650e-02	5.497972e-03	3.053060e-02	5.501500e-03	3.052989e-02	5.447771e-03	3.042496e-02
36            	3.460668e-02	3.636737e-02	3.654148e-02	3.671313e-02	3.534961e-02	5.362319e-03	3.069446e-02	5.419520e-03	3.113384e-02	5.419150e-03	3.111519e-02	5.429156e-03	3.110922e-02	5.415311e-03	3.112579e-02
37            	3.718343e-02	4.055548e-02	4.016971e-02	3.938386e-02	3.591489e-02	5.300365e-03	3.233120e-02	5.372138e-03	3.175089e-02	5.385298e-03	3.169031e-02	5.403280e-03	3.167040e-02	5.400000e-03	3.161405e-02
38            	3.782144e-02	4.030901e-02	3.948967e-02	3.914915e-02	3.888327e-02	5.274658e-03	3.367966e-02	5.453853e-03	3.280900e-02	5.476682e-03	3.267357e-02	5.496562e-03	3.255066e-02	5.507142e-03	3.211715e-02
39            	3.805698e-02	4.361266e-02	4.330386e-02	4.311861e-02	4.155275e-02	5.308269e-03	3.438318e-02	5.669682e-03	3.358544e-02	5.704391e-03	3.346183e-02	5.744475e-03	3.338241e-02	5.741479e-03	3.295720e-02
40            	3.835754e-02	4.207576e-02	4.212536e-02	4.207663e-02	4.151001e-02	5.488027e-03	3.415383e-02	5.831004e-03	3.437311e-02	5.873548e-03	3.433227e-02	5.911675e-03	3.432647e-02	5.913411e-03	3.414491e-02
41            	4.462954e-02	4.579658e-02	4.444002e-02	4.318465e-02	4.141584e-02	5.558678e-03	3.299700e-02	5.820601e-03	3.446123e-02	5.832496e-03	3.473839e-02	5.872909e-03	3.507275e-02	5.872925e-03	3.512330e-02
42            	3.741288e-02	3.808944e-02	3.887317e-02	3.893157e-02	3.906961e-02	5.508598e-03	3.681043e-02	5.875649e-03	3.829178e-02	5.854049e-03	3.829242e-02	5.877165e-03	3.833207e-02	5.923650e-03	3.793666e-02
43            	3.881536e-02	4.337941e-02	4.503808e-02	4.761907e-02	4.847208e-02	5.453164e-03	3.828815e-02	5.950095e-03	4.001798e-02	6.018157e-03	4.020513e-02	6.104394e-03	4.052574e-02	6.162614e-03	4.054679e-02
44            	4.310501e-02	4.639496e-02	4.961183e-02	5.251939e-02	5.313338e-02	5.641638e-03	4.058409e-02	6.391270e-03	4.212672e-02	6.529269e-03	4.222550e-02	6.643539e-03	4.234488e-02	6.712284e-03	4.235441e-02
45            	4.677383e-02	5.512336e-02	5.406348e-02	5.333884e-02	5.282470e-02	6.063408e-03	4.109489e-02	6.773050e-03	4.296146e-02	6.885755e-03	4.338822e-02	7.021119e-03	4.411934e-02	7.105371e-03	4.483312e-02
46            	5.011383e-02	5.427068e-02	5.341173e-02	5.264662e-02	5.236852e-02	6.429051e-03	4.310245e-02	7.085468e-03	4.738017e-02	7.165977e-03	4.791392e-02	7.285723e-03	4.864627e-02	7.390448e-03	4.943188e-02
47            	4.528804e-02	4.979409e-02	4.894258e-02	5.132789e-02	5.168413e-02	6.172084e-03	4.378329e-02	7.218630e-03	5.055141e-02	7.320528e-03	5.083295e-02	7.421337e-03	5.145426e-02	7.552890e-03	5.205773e-02
48            	4.278750e-02	6.522103e-02	7.218972e-02	7.055455e-02	6.739349e-02	6.185322e-03	4.742716e-02	7.528555e-03	5.245173e-02	7.648906e-03	5.225646e-02	7.834258e-03	5.241532e-02	7.995721e-03	5.235005e-02
49            	5.948395e-02	6.795797e-02	6.958258e-02	6.914329e-02	6.964172e-02	6.495925e-03	4.873106e-02	8.133949e-03	5.457230e-02	8.146069e-03	5.560636e-02	8.332430e-03	5.727456e-02	8.472366e-03	5.703316e-02
50            	5.678865e-02	6.763606e-02	6.677877e-02	6.558126e-02	6.432959e-02	6.869614e-03	5.102036e-02	8.594813e-03	6.033476e-02	8.496177e-03	6.172006e-02	8.596506e-03	6.299517e-02	8.868059e-03	6.462253e-02
51            	5.382872e-02	6.108666e-02	6.129069e-02	6.102402e-02	6.773230e-02	7.137578e-03	5.640746e-02	8.634438e-03	6.549476e-02	8.795066e-03	6.646880e-02	8.905486e-03	6.698806e-02	9.246971e-03	6.819891e-02
52            	5.358591e-02	7.389949e-02	7.497638e-02	7.331963e-02	7.555122e-02	7.338547e-03	5.943675e-02	9.057646e-03	6.680053e-02	9.438206e-03	6.811778e-02	9.625456e-03	6.849310e-02	1.000792e-02	6.990983e-02
53            	6.266227e-02	7.599314e-02	7.769744e-02	7.539899e-02	7.613447e-02	7.874617e-03	6.059093e-02	9.479943e-03	7.243782e-02	9.916076e-03	7.293875e-02	1.019654e-02	7.380537e-02	1.065637e-02	7.614789e-02
54            	6.580766e-02	7.291302e-02	7.114921e-02	7.238432e-02	7.296109e-02	8.356320e-03	6.681746e-02	9.801177e-03	7.798529e-02	1.044261e-02	7.928484e-02	1.071919e-02	7.985939e-02	1.105361e-02	8.076457e-02
55            	6.023756e-02	8.764858e-02	8.526129e-02	8.543580e-02	8.168221e-02	8.741501e-03	7.401776e-02	1.008128e-02	8.050537e-02	1.077233e-02	8.285650e-02	1.107883e-02	8.391767e-02	1.136979e-02	8.504941e-02
56            	7.684052e-02	8.067609e-02	7.931551e-02	7.844673e-02	7.353575e-02	9.089868e-03	7.664823e-02	1.043938e-02	8.028438e-02	1.127575e-02	8.438978e-02	1.162801e-02	8.525745e-02	1.191269e-02	8.703338e-02
57            	6.944655e-02	6.794505e-02	6.888153e-02	7.013685e-02	7.267715e-02	9.472163e-03	7.718835e-02	1.087291e-02	8.493098e-02	1.187535e-02	8.694396e-02	1.222022e-02	8.782067e-02	1.240350e-02	8.858687e-02
58            	6.060515e-02	7.840395e-02	8.058136e-02	7.886713e-02	7.634300e-02	9.939227e-03	8.319988e-02	1.113540e-02	8.931897e-02	1.214585e-02	9.048932e-02	1.248257e-02	9.172221e-02	1.272013e-02	9.362090e-02
59            	7.306378e-02	7.463213e-02	7.424077e-02	7.456675e-02	7.364596e-02	1.021564e-02	8.738278e-02	1.179585e-02	9.367538e-02	1.285215e-02	9.353448e-02	1.326161e-02	9.378932e-02	1.347826e-02	9.403901e-02
60            	6.806370e-02	6.830317e-02	7.411593e-02	7.590356e-02	7.986302e-02	1.078586e-02	9.102197e-02	1.252663e-02	9.399839e-02	1.352239e-02	9.374732e-02	1.391651e-02	9.455046e-02	1.415178e-02	9.446532e-02
61            	6.566722e-02	7.702563e-02	7.770656e-02	7.647264e-02	7.609394e-02	1.142743e-02	9.273880e-02	1.310759e-02	9.640086e-02	1.412260e-02	9.757078e-02	1.452209e-02	9.858539e-02	1.475718e-02	9.830810e-02
62            	6.936727e-02	7.573181e-02	8.088120e-02	8.248152e-02	8.376171e-02	1.202841e-02	9.772699e-02	1.367216e-02	9.773986e-02	1.493408e-02	9.727228e-02	1.529627e-02	9.750994e-02	1.533007e-02	9.771561e-02
63            	6.750166e-02	8.332904e-02	8.172203e-02	8.097986e-02	8.003817e-02	1.260744e-02	9.956671e-02	1.416643e-02	9.822375e-02	1.552338e-02	9.879348e-02	1.585844e-02	9.968088e-02	1.584388e-02	1.004731e-01
64            	7.054209e-02	7.998405e-02	7.941672e-02	8.129997e-02	8.785969e-02	1.294979e-02	9.965306e-02	1.466927e-02	1.027560e-01	1.608841e-02	1.022540e-01	1.657138e-02	1.025267e-01	1.656747e-02	1.021806e-01
65            	7.163247e-02	9.448510e-02	9.269749e-02	8.949099e-02	8.986092e-02	1.338770e-02	1.054591e-01	1.534149e-02	1.032458e-01	1.663922e-02	1.029742e-01	1.699864e-02	1.037343e-01	1.691649e-02	1.045357e-01
66            	7.982544e-02	8.385949e-02	8.675800e-02	8.484299e-02	9.165717e-02	1.398548e-02	1.047024e-01	1.578136e-02	1.049631e-01	1.694311e-02	1.055523e-01	1.733215e-02	1.058539e-01	1.741659e-02	1.056056e-01
67            	6.999223e-02	8.852633e-02	9.901325e-02	9.822521e-02	9.489882e-02	1.427971e-02	1.075815e-01	1.651964e-02	1.058007e-01	1.757513e-02	1.070767e-01	1.785240e-02	1.073108e-01	1.781009e-02	1.068592e-01
68            	7.620015e-02	8.445418e-02	8.679997e-02	8.919483e-02	9.043138e-02	1.491956e-02	1.061291e-01	1.675180e-02	1.056792e-01	1.790688e-02	1.060574e-01	1.817147e-02	1.066208e-01	1.825291e-02	1.060967e-01
69            	7.458497e-02	1.039356e-01	1.088392e-01	1.102121e-01	1.079989e-01	1.497657e-02	1.054984e-01	1.693484e-02	1.063084e-01	1.821044e-02	1.070417e-01	1.841362e-02	1.070100e-01	1.836100e-02	1.063736e-01
70            	8.792749e-02	1.025745e-01	1.081132e-01	1.096569e-01	1.145031e-01	1.510471e-02	1.052037e-01	1.688640e-02	1.052608e-01	1.828687e-02	1.062964e-01	1.849038e-02	1.057361e-01	1.845426e-02	1.053495e-01
71            	8.209996e-02	1.096340e-01	1.187851e-01	1.216509e-01	1.154737e-01	1.508692e-02	1.036627e-01	1.699455e-02	1.037461e-01	1.827588e-02	1.062218e-01	1.848103e-02	1.063300e-01	1.839260e-02	1.052413e-01
72            	8.826272e-02	1.120936e-01	1.156928e-01	1.188349e-01	1.324165e-01	1.504812e-02	1.013959e-01	1.696928e-02	1.013672e-01	1.823031e-02	1.035447e-01	1.854753e-02	1.038875e-01	1.861762e-02	1.036504e-01
73            	9.022247e-02	1.250361e-01	1.326341e-01	1.314114e-01	1.352981e-01	1.514496e-02	9.857762e-02	1.689906e-02	1.036873e-01	1.803889e-02	1.068909e-01	1.816303e-02	1.068360e-01	1.815950e-02	1.068913e-01
74            	9.766017e-02	1.116455e-01	1.290961e-01	1.310696e-01	1.230522e-01	1.476215e-02	1.004808e-01	1.666014e-02	1.056894e-01	1.783038e-02	1.074982e-01	1.788143e-02	1.078583e-01	1.762545e-02	1.096148e-01
75            	9.351081e-02	1.129639e-01	1.147338e-01	1.154992e-01	1.206868e-01	1.422732e-02	9.931246e-02	1.601663e-02	1.057138e-01	1.703575e-02	1.086493e-01	1.712726e-02	1.084944e-01	1.685566e-02	1.070219e-01
76            	8.847835e-02	1.101861e-01	1.191960e-01	1.162018e-01	1.146311e-01	1.367937e-02	9.964205e-02	1.553056e-02	1.030567e-01	1.640613e-02	1.033954e-01	1.644811e-02	1.032672e-01	1.625120e-02	1.034742e-01
77            	8.884155e-02	9.904693e-02	1.139678e-01	1.162334e-01	1.180724e-01	1.328282e-02	9.608500e-02	1.493770e-02	1.003347e-01	1.618950e-02	1.022903e-01	1.628574e-02	1.011350e-01	1.608306e-02	9.896412e-02
78            	8.101656e-02	1.047149e-01	1.107411e-01	1.120994e-01	1.125234e-01	1.274418e-02	9.292440e-02	1.472175e-02	9.526861e-02	1.568141e-02	9.958267e-02	1.563058e-02	9.928604e-02	1.535586e-02	9.863638e-02
79            	9.047603e-02	9.473979e-02	1.042387e-01	1.044471e-01	9.949838e-02	1.253701e-02	8.916674e-02	1.378083e-02	9.465404e-02	1.482929e-02	9.647210e-02	1.481599e-02	9.648980e-02	1.452267e-02	9.753826e-02
80            	8.330644e-02	8.494058e-02	9.097875e-02	9.048711e-02	8.730850e-02	1.176922e-02	8.725212e-02	1.260333e-02	9.461873e-02	1.351819e-02	9.952333e-02	1.348419e-02	9.948158e-02	1.312139e-02	9.921445e-02
81            	7.517586e-02	7.157878e-02	7.615072e-02	7.465377e-02	6.901490e-02	1.094276e-02	8.919277e-02	1.113028e-02	8.996493e-02	1.205884e-02	9.636164e-02	1.199589e-02	9.729162e-02	1.157129e-02	9.668306e-02
82            	6.182945e-02	5.606001e-02	5.643422e-02	5.504010e-02	5.188469e-02	9.605537e-03	8.646450e-02	9.716399e-03	8.848506e-02	1.057805e-02	9.496582e-02	1.048223e-02	9.539756e-02	1.008461e-02	9.401311e-02
83            	4.683394e-02	4.289360e-02	4.424283e-02	4.365270e-02	4.139256e-02	8.322691e-03	8.660979e-02	8.257458e-03	8.255124e-02	9.015549e-03	8.954716e-02	8.936245e-03	8.969608e-02	8.603098e-03	8.750570e-02
84            	3.461677e-02	3.515106e-02	3.735722e-02	3.728950e-02	3.634214e-02	7.105431e-03	8.114437e-02	7.176426e-03	7.829555e-02	7.955595e-03	8.382753e-02	7.952427e-03	8.367250e-02	7.788744e-03	8.248582e-02
85            	2.813780e-02	3.292872e-02	3.580983e-02	3.647987e-02	3.728558e-02	6.138352e-03	7.631846e-02	6.616717e-03	7.298026e-02	7.321747e-03	7.720478e-02	7.339749e-03	7.708812e-02	7.245306e-03	7.601795e-02
86            	2.566506e-02	3.547413e-02	3.784682e-02	3.830431e-02	3.902556e-02	5.697882e-03	7.105759e-02	6.225659e-03	6.940658e-02	6.931463e-03	7.386508e-02	6.963747e-03	7.372495e-02	6.886994e-03	7.274501e-02
87            	2.620537e-02	3.904024e-02	4.052575e-02	4.074336e-02	4.179803e-02	5.387674e-03	6.832375e-02	5.937540e-03	6.559930e-02	6.591767e-03	6.937916e-02	6.631992e-03	6.936043e-02	6.574511e-03	6.868374e-02
88            	2.636693e-02	4.210189e-02	4.428458e-02	4.467376e-02	4.578449e-02	5.105832e-03	6.349324e-02	5.662497e-03	6.013258e-02	6.304359e-03	6.498559e-02	6.339749e-03	6.502583e-02	6.287381e-03	6.360054e-02
89            	2.632995e-02	4.268327e-02	4.642539e-02	4.672445e-02	4.698306e-02	4.899052e-03	5.978716e-02	5.374879e-03	5.710612e-02	6.008738e-03	6.081723e-02	6.037734e-03	6.077405e-02	5.943426e-03	5.995274e-02
90            	2.654460e-02	4.185030e-02	4.511798e-02	4.525665e-02	4.524826e-02	4.640329e-03	5.428460e-02	5.029348e-03	5.371295e-02	5.623454e-03	5.709754e-02	5.644743e-03	5.704361e-02	5.532249e-03	5.631879e-02
91            	2.513552e-02	4.065543e-02	4.429002e-02	4.432591e-02	4.406275e-02	4.333314e-03	5.045911e-02	4.546190e-03	5.019654e-02	5.116179e-03	5.360736e-02	5.126720e-03	5.356241e-02	4.966130e-03	5.279321e-02
92            	2.307518e-02	3.667237e-02	4.060601e-02	4.048575e-02	3.866823e-02	4.010091e-03	4.674483e-02	4.130123e-03	4.749659e-02	4.596995e-03	5.035457e-02	4.599508e-03	5.021977e-02	4.472043e-03	4.925784e-02
93            	2.064546e-02	3.163076e-02	3.529385e-02	3.516908e-02	3.359606e-02	3.617992e-03	4.333167e-02	3.642070e-03	4.390397e-02	4.085916e-03	4.672943e-02	4.091043e-03	4.650664e-02	3.943676e-03	4.518497e-02
94            	1.824973e-02	2.793776e-02	3.093312e-02	3.070694e-02	2.925682e-02	3.229227e-03	4.076089e-02	3.199442e-03	4.005760e-02	3.567369e-03	4.282870e-02	3.572147e-03	4.258307e-02	3.478806e-03	4.114116e-02
95            	1.571928e-02	2.424286e-02	2.703238e-02	2.682751e-02	2.544557e-02	2.836969e-03	3.661781e-02	2.964826e-03	3.504082e-02	3.272539e-03	3.745865e-02	3.280883e-03	3.720832e-02	3.212561e-03	3.569374e-02
96            	1.427914e-02	2.187320e-02	2.388878e-02	2.373745e-02	2.257127e-02	2.537542e-03	3.275618e-02	2.738497e-03	3.091824e-02	3.014065e-03	3.274998e-02	3.020548e-03	3.246347e-02	2.936664e-03	3.096022e-02
97            	1.322084e-02	1.990744e-02	2.147205e-02	2.129790e-02	2.031645e-02	2.390739e-03	2.887145e-02	2.496094e-03	2.751372e-02	2.725915e-03	2.880742e-02	2.727951e-03	2.854444e-02	2.641474e-03	2.749248e-02
98            	1.290082e-02	1.776062e-02	1.902343e-02	1.887387e-02	1.790852e-02	2.239944e-03	2.539373e-02	2.221906e-03	2.441520e-02	2.415022e-03	2.558265e-02	2.413698e-03	2.534297e-02	2.323055e-03	2.421547e-02
99            	1.223553e-02	1.569295e-02	1.665259e-02	1.657546e-02	1.587770e-02	2.063527e-03	2.267340e-02	1.939804e-03	2.309858e-02	2.095108e-03	2.361828e-02	2.091856e-03	2.335814e-02	2.000601e-03	2.277280e-02
100           	1.125907e-02	1.383271e-02	1.469767e-02	1.464263e-02	1.410083e-02	1.848616e-03	2.044672e-02	1.685504e-03	2.186145e-02	1.800342e-03	2.233168e-02	1.794370e-03	2.206822e-02	1.718507e-03	2.137795e-02
101           	1.022007e-02	1.233841e-02	1.302486e-02	1.296736e-02	1.248653e-02	1.627504e-03	1.935451e-02	1.477681e-03	2.029810e-02	1.556277e-03	2.066018e-02	1.549199e-03	2.039698e-02	1.483455e-03	1.966072e-02
102           	9.094009e-03	1.108222e-02	1.165431e-02	1.162676e-02	1.126709e-02	1.422760e-03	1.817016e-02	1.308207e-03	1.891304e-02	1.360556e-03	1.900546e-02	1.350729e-03	1.870988e-02	1.295792e-03	1.801508e-02
103           	8.036677e-03	1.008003e-02	1.052543e-02	1.050077e-02	1.027256e-02	1.247111e-03	1.684515e-02	1.167379e-03	1.740234e-02	1.200861e-03	1.741068e-02	1.190044e-03	1.710368e-02	1.147945e-03	1.633445e-02
104           	7.138783e-03	9.267340e-03	9.645657e-03	9.619925e-03	9.405518e-03	1.109342e-03	1.578293e-02	1.063537e-03	1.586337e-02	1.082872e-03	1.562475e-02	1.072746e-03	1.532172e-02	1.041301e-03	1.463384e-02
105           	6.483188e-03	8.475708e-03	8.799900e-03	8.768663e-03	8.536002e-03	9.981504e-04	1.462874e-02	9.922666e-04	1.462383e-02	1.000886e-03	1.420615e-02	9.898671e-04	1.386104e-02	9.684896e-04	1.331518e-02
106           	6.018034e-03	7.645123e-03	7.933788e-03	7.898344e-03	7.687956e-03	9.209444e-04	1.359035e-02	9.427648e-04	1.350816e-02	9.430970e-04	1.308632e-02	9.342653e-04	1.277533e-02	9.172596e-04	1.228048e-02
107           	5.630947e-03	6.890494e-03	7.149060e-03	7.103792e-03	6.923436e-03	8.802095e-04	1.281443e-02	9.093643e-04	1.250834e-02	9.014695e-04	1.203375e-02	8.918135e-04	1.176150e-02	8.794022e-04	1.133269e-02
108           	5.312190e-03	6.215960e-03	6.457498e-03	6.423035e-03	6.257396e-03	8.647504e-04	1.213559e-02	8.914763e-04	1.179668e-02	8.748034e-04	1.122593e-02	8.643660e-04	1.097259e-02	8.575583e-04	1.062379e-02
109           	4.969193e-03	5.684679e-03	5.900052e-03	5.866267e-03	5.725646e-03	8.564378e-04	1.163590e-02	8.808406e-04	1.114363e-02	8.587527e-04	1.056617e-02	8.485583e-04	1.032244e-02	8.434829e-04	1.003871e-02
110           	4.601321e-03	5.306359e-03	5.473447e-03	5.392795e-03	5.331341e-03	8.555208e-04	1.135371e-02	8.721074e-04	1.061845e-02	8.463287e-04	9.980446e-03	8.356921e-04	9.736966e-03	8.304699e-04	9.513739e-03
111           	4.232837e-03	4.992372e-03	5.135642e-03	5.079471e-03	5.032342e-03	8.549807e-04	1.105010e-02	8.658871e-04	1.028532e-02	8.342995e-04	9.525536e-03	8.241982e-04	9.270550e-03	8.184310e-04	9.087624e-03
112           	3.897525e-03	4.702294e-03	4.813181e-03	4.774367e-03	4.710546e-03	8.534028e-04	1.081891e-02	8.570627e-04	9.996443e-03	8.224751e-04	9.190443e-03	8.114546e-04	8.933878e-03	8.049910e-04	8.768178e-03
113           	3.608438e-03	4.367501e-03	4.473382e-03	4.433217e-03	4.354292e-03	8.478404e-04	1.062257e-02	8.437486e-04	9.768018e-03	8.076630e-04	8.919354e-03	7.963948e-04	8.673548e-03	7.898484e-04	8.524416e-03
114           	3.348241e-03	4.033905e-03	4.129219e-03	4.094268e-03	4.001872e-03	8.416037e-04	1.036077e-02	8.274791e-04	9.496725e-03	7.909207e-04	8.647865e-03	7.795660e-04	8.425142e-03	7.729356e-04	8.286695e-03
115           	3.127661e-03	3.695246e-03	3.758385e-03	3.729908e-03	3.631092e-03	8.307318e-04	1.012904e-02	8.092423e-04	9.231708e-03	7.702797e-04	8.383741e-03	7.599730e-04	8.168224e-03	7.535990e-04	8.055984e-03
116           	2.930689e-03	3.380868e-03	3.414945e-03	3.386974e-03	3.300849e-03	8.150986e-04	9.842556e-03	7.872631e-04	8.914886e-03	7.484991e-04	8.120680e-03	7.375060e-04	7.924719e-03	7.313437e-04	7.820770e-03
117           	2.746765e-03	3.101360e-03	3.119125e-03	3.087143e-03	3.027415e-03	7.986242e-04	9.583162e-03	7.608932e-04	8.563345e-03	7.240507e-04	7.802120e-03	7.136893e-04	7.613189e-03	7.078825e-04	7.533596e-03
118           	2.561036e-03	2.854644e-03	2.875896e-03	2.846487e-03	2.799854e-03	7.752183e-04	9.236927e-03	7.303633e-04	8.242218e-03	6.936806e-04	7.518646e-03	6.843492e-04	7.338559e-03	6.791976e-04	7.277959e-03
119           	2.385430e-03	2.624135e-03	2.630548e-03	2.612570e-03	2.573953e-03	7.484781e-04	8.850832e-03	6.976558e-04	7.919089e-03	6.628444e-04	7.230694e-03	6.534770e-04	7.063769e-03	6.486401e-04	7.023338e-03
120           	2.207813e-03	2.398815e-03	2.420184e-03	2.406817e-03	2.380183e-03	7.198413e-04	8.482045e-03	6.613319e-04	7.622638e-03	6.295435e-04	6.985776e-03	6.212502e-04	6.825769e-03	6.173757e-04	6.791566e-03
121           	2.026556e-03	2.180521e-03	2.226844e-03	2.206811e-03	2.191200e-03	6.846909e-04	8.090337e-03	6.249512e-04	7.265554e-03	5.944578e-04	6.696227e-03	5.866472e-04	6.543352e-03	5.837104e-04	6.520352e-03
122           	1.838267e-03	1.997745e-03	2.045878e-03	2.030632e-03	2.024394e-03	6.497949e-04	7.696106e-03	5.855948e-04	6.931450e-03	5.589971e-04	6.433464e-03	5.523623e-04	6.294639e-03	5.505092e-04	6.283379e-03
123           	1.651502e-03	1.825098e-03	1.880183e-03	1.866569e-03	1.871555e-03	6.103006e-04	7.282679e-03	5.471563e-04	6.631244e-03	5.230674e-04	6.186717e-03	5.178007e-04	6.064413e-03	5.170513e-04	6.060570e-03
124           	1.474765e-03	1.663348e-03	1.726089e-03	1.712815e-03	1.717937e-03	5.708911e-04	6.911464e-03	5.084115e-04	6.305652e-03	4.878149e-04	5.900891e-03	4.834567e-04	5.796460e-03	4.837831e-04	5.801422e-03
125           	1.304610e-03	1.529512e-03	1.603923e-03	1.594921e-03	1.608725e-03	5.298948e-04	6.553501e-03	4.709935e-04	5.952669e-03	4.536777e-04	5.595392e-03	4.503107e-04	5.500144e-03	4.515890e-04	5.513818e-03
126           	1.170577e-03	1.425923e-03	1.501933e-03	1.497042e-03	1.511390e-03	4.897988e-04	6.170039e-03	4.351403e-04	5.576051e-03	4.212143e-04	5.304471e-03	4.183309e-04	5.215392e-03	4.205927e-04	5.228496e-03
127           	1.057762e-03	1.371538e-03	1.426896e-03	1.421198e-03	1.436570e-03	4.511482e-04	5.766825e-03	4.036985e-04	5.192249e-03	3.917886e-04	5.003031e-03	3.902789e-04	4.926282e-03	3.930290e-04	4.947548e-03
128           	1.007461e-03	1.359288e-03	1.374564e-03	1.359421e-03	1.372757e-03	4.154948e-04	5.362844e-03	3.776471e-04	4.822130e-03	3.650672e-04	4.681240e-03	3.635561e-04	4.621131e-03	3.670680e-04	4.650290e-03
129           	1.018899e-03	1.365231e-03	1.368923e-03	1.348948e-03	1.356339e-03	3.851305e-04	4.947236e-03	3.575804e-04	4.436285e-03	3.439720e-04	4.346210e-03	3.429261e-04	4.300997e-03	3.470792e-04	4.335517e-03
130           	1.053533e-03	1.363714e-03	1.355231e-03	1.335479e-03	1.338578e-03	3.622183e-04	4.523791e-03	3.432924e-04	4.052376e-03	3.278177e-04	4.028012e-03	3.260348e-04	3.993773e-03	3.301765e-04	4.032438e-03
131           	1.087480e-03	1.362534e-03	1.348755e-03	1.327143e-03	1.334456e-03	3.479047e-04	4.107286e-03	3.371367e-04	3.695168e-03	3.165230e-04	3.719611e-03	3.140551e-04	3.700329e-03	3.180483e-04	3.742073e-03
132           	1.102727e-03	1.339155e-03	1.325846e-03	1.305115e-03	1.310895e-03	3.416966e-04	3.711314e-03	3.297459e-04	3.364410e-03	3.105699e-04	3.418531e-03	3.077943e-04	3.411384e-03	3.116113e-04	3.456078e-03
133           	1.114256e-03	1.314183e-03	1.300062e-03	1.282576e-03	1.287385e-03	3.345752e-04	3.341101e-03	3.235022e-04	3.057858e-03	3.042080e-04	3.140217e-03	3.016801e-04	3.136640e-03	3.056522e-04	3.180685e-03
134           	1.105877e-03	1.274026e-03	1.262410e-03	1.247351e-03	1.250163e-03	3.281350e-04	3.012844e-03	3.160391e-04	2.779183e-03	2.989698e-04	2.885943e-03	2.963519e-04	2.886148e-03	3.001863e-04	2.929286e-03
135           	1.084720e-03	1.222283e-03	1.216932e-03	1.205858e-03	1.209525e-03	3.194502e-04	2.717539e-03	3.075006e-04	2.538656e-03	2.930419e-04	2.652055e-03	2.910799e-04	2.656409e-03	2.950532e-04	2.697320e-03
136           	1.044159e-03	1.157955e-03	1.158596e-03	1.151629e-03	1.155728e-03	3.087507e-04	2.473455e-03	2.979498e-04	2.339292e-03	2.862574e-04	2.446621e-03	2.844893e-04	2.445817e-03	2.885332e-04	2.483740e-03
137           	9.965592e-04	1.093801e-03	1.103194e-03	1.099976e-03	1.103603e-03	2.966723e-04	2.268339e-03	2.876199e-04	2.173074e-03	2.778785e-04	2.256285e-03	2.765711e-04	2.253858e-03	2.807077e-04	2.287413e-03
138           	9.427237e-04	1.028709e-03	1.041518e-03	1.041065e-03	1.043915e-03	2.838666e-04	2.097245e-03	2.770883e-04	2.026656e-03	2.692762e-04	2.088393e-03	2.683939e-04	2.086453e-03	2.724561e-04	2.116079e-03
139           	8.844086e-04	9.646883e-04	9.758113e-04	9.794879e-04	9.836471e-04	2.703284e-04	1.957771e-03	2.659676e-04	1.897918e-03	2.604295e-04	1.942927e-03	2.600319e-04	1.939887e-03	2.640539e-04	1.965435e-03
140           	8.256057e-04	9.023172e-04	9.121373e-04	9.161402e-04	9.206153e-04	2.561040e-04	1.840805e-03	2.543044e-04	1.785337e-03	2.508194e-04	1.815815e-03	2.509055e-04	1.812835e-03	2.549204e-04	1.835211e-03
141           	7.715673e-04	8.434025e-04	8.533610e-04	8.572038e-04	8.622983e-04	2.422068e-04	1.728615e-03	2.426844e-04	1.683228e-03	2.410381e-04	1.704598e-03	2.413630e-04	1.698967e-03	2.452158e-04	1.718341e-03