/*--------------------------------*- C++ -*----------------------------------*\
  =========                 |
  \\      /  F ield         | OpenFOAM: The Open Source CFD Toolbox
   \\    /   O peration     | Website:  https://openfoam.org
    \\  /    A nd           | Version:  7
     \\/     M anipulation  |
\*---------------------------------------------------------------------------*/
FoamFile
{
    version     2.0;
    format      ascii;
    class       volScalarField;
    location    "486";
    object      nuef3;
}
// * * * * * * * * * * * * * * * * * * * * * * * * * * * * * * * * * * * * * //

dimensions      [0 2 -1 0 0 0 0];

internalField   nonuniform List<scalar> 
900
(
0.000514446
0.00048391
0.000477698
0.000474626
0.000473503
0.000473889
0.00047707
0.000480476
0.000488429
0.00047896
0.000529012
0.000690999
0.000718921
0.000728688
0.000732724
0.00073571
0.000739087
0.000739176
0.000752156
0.000722003
0.000578157
0.00100959
0.00113639
0.00118671
0.00121241
0.00122759
0.00123685
0.00124404
0.00125511
0.00124499
0.0005162
0.00117498
0.00143427
0.00154844
0.00160636
0.0016407
0.0016608
0.00167538
0.00168951
0.00168988
0.00034407
0.00114552
0.00156575
0.00177162
0.00187828
0.00194096
0.0019771
0.00200095
0.00201846
0.00202632
5.517e-05
0.000867449
0.00144364
0.0017678
0.00194417
0.00204537
0.00210343
0.00213766
0.00215846
0.00216904
1.5e-05
0.000369812
0.000960636
0.00140554
0.00167311
0.00182728
0.00191247
0.00195824
0.00197997
0.0019879
1.67787e-05
1.97191e-05
0.000243839
0.000568466
0.000852973
0.00105655
0.00118185
0.0012492
0.00127792
0.00128503
1.93165e-05
1.78256e-05
1.80185e-05
3.17528e-05
8.80731e-05
0.000153744
0.000202465
0.000231635
0.000246207
0.000250878
1.91056e-05
1.93946e-05
1.9098e-05
1.84206e-05
1.80803e-05
1.82344e-05
1.83326e-05
1.82573e-05
1.81859e-05
1.80076e-05
1.91451e-05
1.94095e-05
1.94479e-05
1.93513e-05
1.93826e-05
1.9296e-05
1.93121e-05
1.94166e-05
1.93914e-05
1.93025e-05
1.92149e-05
1.93623e-05
1.9417e-05
1.94933e-05
1.95435e-05
1.94251e-05
1.94408e-05
1.94289e-05
1.94464e-05
1.9418e-05
1.92422e-05
1.93583e-05
1.93896e-05
1.93461e-05
1.92653e-05
1.93246e-05
1.91176e-05
1.89419e-05
1.86789e-05
1.85791e-05
1.91259e-05
1.92054e-05
1.88241e-05
1.83032e-05
1.79167e-05
1.74546e-05
1.71014e-05
1.68781e-05
1.67439e-05
1.66612e-05
1.85711e-05
1.71051e-05
1.86592e-05
3.28649e-05
7.31114e-05
0.000127294
0.000177313
0.000218826
0.000250433
0.000273697
1.54469e-05
8.95827e-05
0.000397034
0.000705059
0.000958522
0.00114574
0.00127835
0.00137177
0.00143588
0.00147952
8.06728e-05
0.000813966
0.00141786
0.00179156
0.00200546
0.00213201
0.0022108
0.00226219
0.00229574
0.00231815
0.000645555
0.0015211
0.00188954
0.00206745
0.00216762
0.0022285
0.00226522
0.00228782
0.00230176
0.00231017
0.00117564
0.00162475
0.00169153
0.0017242
0.00174726
0.00176154
0.00176999
0.00177492
0.00177695
0.00177859
0.00172175
0.00168334
0.00162262
0.00159848
0.00158544
0.00157557
0.00156606
0.0015556
0.00154688
0.0015397
1.94109e-05
1.93643e-05
1.94241e-05
1.93618e-05
1.95136e-05
1.95035e-05
1.94687e-05
1.95345e-05
1.9659e-05
1.98077e-05
1.98623e-05
1.99294e-05
2.00817e-05
2.00666e-05
2.00045e-05
2.00359e-05
2.01207e-05
2.0113e-05
2.01015e-05
2.00703e-05
1.94094e-05
1.945e-05
1.94301e-05
1.94438e-05
1.93987e-05
1.93017e-05
1.92649e-05
1.92208e-05
1.91362e-05
1.89357e-05
1.87231e-05
1.85068e-05
1.82436e-05
1.79544e-05
1.77278e-05
1.75088e-05
1.73875e-05
1.72652e-05
1.71172e-05
1.69192e-05
1.84298e-05
1.81832e-05
1.80645e-05
1.78686e-05
1.76318e-05
1.73847e-05
1.69971e-05
1.66296e-05
1.62583e-05
1.58976e-05
1.56015e-05
1.53542e-05
1.52283e-05
1.51305e-05
1.50781e-05
1.50506e-05
1.50328e-05
1.5024e-05
1.50183e-05
1.50166e-05
1.6607e-05
1.6533e-05
1.65483e-05
1.65364e-05
1.66275e-05
1.68029e-05
1.70927e-05
1.77088e-05
1.88535e-05
2.10283e-05
2.53564e-05
3.30248e-05
4.56233e-05
6.37673e-05
8.7407e-05
0.000114773
0.00014508
0.000180435
0.000210285
0.00029471
0.000290446
0.000306173
0.000324334
0.000345909
0.000371976
0.000403231
0.000440252
0.000484318
0.000535839
0.000595309
0.000662712
0.000737742
0.000818897
0.000906393
0.000999538
0.00109991
0.00120894
0.00133471
0.0014493
0.00170602
0.00150908
0.00153511
0.00156488
0.00159875
0.00163775
0.00168127
0.00173119
0.00178721
0.00185039
0.00191925
0.00199354
0.00207391
0.00215848
0.00224719
0.00234032
0.00243755
0.00253981
0.00265132
0.00275216
0.00294247
0.00233289
0.00234599
0.00235993
0.00237632
0.00239513
0.00241621
0.00243983
0.00246659
0.0024964
0.00253073
0.00256865
0.00261118
0.00265963
0.00271308
0.00277175
0.00283578
0.00290439
0.00297608
0.00304253
0.00315267
0.00231602
0.00232115
0.00232671
0.00233227
0.0023392
0.00234653
0.00235494
0.00236473
0.00237682
0.0023909
0.00240786
0.00242922
0.00245464
0.00248373
0.0025175
0.0025528
0.00258974
0.00262533
0.00265732
0.00270291
0.00177884
0.00177988
0.00178051
0.00178117
0.00178118
0.00178213
0.0017819
0.00178199
0.0017823
0.00178211
0.00178216
0.00178238
0.00178303
0.00178376
0.00178435
0.00178531
0.00178689
0.00178633
0.00178884
0.00178954
0.0015346
0.00152962
0.00152385
0.00151676
0.00150859
0.00149901
0.0014871
0.00147371
0.00145745
0.00144045
0.00142223
0.00140409
0.00138723
0.00137225
0.0013608
0.00135228
0.00134742
0.00134493
0.00134454
0.00134504
0.000741322
0.00125876
0.00203748
0.0028556
0.00355798
0.00405096
0.00433409
0.00447486
0.00456541
0.00466737
0.00480265
0.00496158
0.00512157
0.00526207
0.00537119
0.00544531
0.00549303
0.00550678
0.00555238
0.0053191
0.000896616
0.00115413
0.00163311
0.00228266
0.00291948
0.00340189
0.00370484
0.00387884
0.00400534
0.00414385
0.00432209
0.00453284
0.00475302
0.00495728
0.00512787
0.00525873
0.00535578
0.00541329
0.00549343
0.00528142
0.00133122
0.00143921
0.00162551
0.00194476
0.00236139
0.00275273
0.00303796
0.00322174
0.00335726
0.00350205
0.0036966
0.00394318
0.00422282
0.00450102
0.00475068
0.00495683
0.00512165
0.00523958
0.00536713
0.00522708
0.00173503
0.00179284
0.00187718
0.00200496
0.00218429
0.002385
0.00255814
0.00267503
0.00275241
0.00283368
0.00296877
0.00318871
0.00348896
0.00383125
0.0041694
0.00447229
0.00472823
0.00493028
0.00512269
0.00511435
0.00204855
0.00207843
0.0021194
0.00217418
0.00224019
0.00230424
0.00234496
0.00234532
0.00231334
0.00227748
0.00227981
0.00236895
0.00257933
0.00290687
0.00330344
0.00370903
0.0040799
0.00439703
0.00467748
0.00486851
0.00217922
0.00219053
0.00220375
0.00221502
0.00221759
0.00219876
0.00214453
0.0020496
0.00192721
0.00180059
0.00169786
0.00164613
0.00168054
0.00184009
0.00214595
0.00257283
0.00304596
0.00350278
0.003902
0.00433153
0.00198829
0.0019845
0.00197475
0.0019502
0.00190207
0.00181971
0.00169835
0.00154524
0.00137847
0.00122019
0.00108774
0.000991257
0.00093675
0.000936814
0.00101655
0.00122105
0.00157761
0.00207926
0.00259739
0.00332119
0.00128146
0.0012709
0.0012489
0.00120862
0.00114356
0.00104855
0.000927239
0.000790907
0.000656837
0.000539173
0.000444544
0.000374352
0.000325688
0.000297418
0.00028823
0.000307918
0.000369722
0.000541024
0.000765201
0.00154591
0.000251377
0.000248772
0.000242283
0.000229253
0.000207611
0.000175425
0.000133885
8.79358e-05
4.86757e-05
2.64846e-05
1.83625e-05
1.59933e-05
1.53498e-05
1.5161e-05
1.51006e-05
1.50908e-05
1.50774e-05
1.54171e-05
1.51155e-05
0.000121841
1.78304e-05
1.75652e-05
1.7358e-05
1.70205e-05
1.66681e-05
1.63616e-05
1.60338e-05
1.58505e-05
1.57644e-05
1.57777e-05
1.59093e-05
1.60307e-05
1.62003e-05
1.63319e-05
1.64842e-05
1.65595e-05
1.66703e-05
1.67421e-05
1.68485e-05
1.69778e-05
1.56229e-05
1.50233e-05
1.53398e-05
1.5934e-05
1.61301e-05
1.6175e-05
1.59124e-05
1.54551e-05
1.52318e-05
1.51792e-05
1.51634e-05
1.53463e-05
1.56504e-05
1.59426e-05
1.62162e-05
1.65161e-05
1.66831e-05
1.68945e-05
1.6989e-05
1.71857e-05
0.000142028
2.77286e-05
7.54684e-05
8.2488e-05
7.84449e-05
8.95792e-05
9.63277e-05
9.69062e-05
9.04962e-05
8.02167e-05
7.06345e-05
7.0411e-05
9.81574e-05
0.000118424
0.000133511
0.000143621
0.0001508
0.00015745
0.000160995
0.000166792
0.000206123
0.000134663
0.00018267
0.000217908
0.000261371
0.00029545
0.000312794
0.000313236
0.000300173
0.000278534
0.00025624
0.000240223
0.00025076
0.000266989
0.000280294
0.000290822
0.000298951
0.000305722
0.000309613
0.000315644
0.000254487
0.000228246
0.000315249
0.000437004
0.000510539
0.00056621
0.000593692
0.000591508
0.000566506
0.000528102
0.000487634
0.000449995
0.000438507
0.000447932
0.000459849
0.000470114
0.000477946
0.000485034
0.000488613
0.000494602
0.000295559
0.000326411
0.000542579
0.000738764
0.000851064
0.000937754
0.00097977
0.000973203
0.000930909
0.000867803
0.000800963
0.000739383
0.000701546
0.000693147
0.000695466
0.000700385
0.000704444
0.000707781
0.000709978
0.000712273
0.000335388
0.000447873
0.000876354
0.00115511
0.00131759
0.0014455
0.00150458
0.00149193
0.00142571
0.00132893
0.00122724
0.001133
0.00106443
0.00102826
0.00101138
0.00100185
0.000995995
0.000990327
0.000987564
0.000981198
0.000381464
0.000648854
0.00134405
0.00171773
0.00194868
0.0021279
0.00220717
0.00218371
0.00208538
0.00194437
0.00179744
0.00165904
0.00155167
0.0014782
0.00142967
0.00139465
0.00137019
0.00134745
0.00133527
0.00131242
0.000440858
0.000938882
0.00189462
0.00240531
0.00276096
0.0030182
0.00312764
0.00308941
0.00294791
0.00274972
0.00254379
0.00234895
0.00218748
0.00206259
0.00196942
0.00189637
0.00184249
0.00179377
0.00176492
0.00171669
0.00050872
0.00133833
0.00247022
0.00315264
0.00367381
0.00404963
0.00422543
0.00419244
0.00401194
0.00374983
0.00347165
0.00320557
0.00297482
0.00278523
0.00263463
0.00251185
0.00241814
0.00233342
0.00228264
0.00219732
0.000559239
0.00175574
0.00303733
0.00389467
0.00458084
0.00507878
0.00532859
0.00531961
0.00512315
0.00481877
0.00448167
0.00415234
0.00385662
0.00360289
0.00339469
0.00321877
0.00308134
0.00295599
0.00287906
0.00275047
0.000609143
0.00214615
0.00355369
0.00456905
0.00540199
0.00600063
0.00630757
0.00632066
0.00612003
0.00579765
0.00543128
0.0050672
0.00473172
0.00443549
0.00418395
0.00396656
0.00379189
0.00363051
0.00352923
0.00335683
0.000637823
0.00246502
0.00395573
0.00509878
0.00604258
0.00670783
0.00704511
0.00707081
0.00687791
0.00656294
0.00620253
0.00584143
0.00550211
0.00519546
0.00492652
0.00468996
0.00449386
0.0043102
0.00419327
0.0039829
0.000645135
0.00263985
0.00415471
0.00536666
0.00636
0.00703719
0.00736992
0.00739774
0.00722897
0.00695965
0.00665519
0.00634836
0.00605509
0.00578179
0.00553535
0.00531067
0.00511926
0.00493474
0.00481789
0.00458325
0.000621096
0.00262523
0.00402886
0.00519219
0.00612638
0.00673697
0.0070228
0.00705007
0.00693584
0.00676666
0.00658672
0.00640693
0.00622981
0.0060544
0.00588459
0.00571951
0.00557105
0.00541823
0.0053279
0.00508793
0.00118833
0.00218914
0.00326338
0.00420464
0.00495319
0.0054433
0.00568517
0.00574903
0.00574347
0.00573832
0.00575563
0.00578397
0.00580777
0.00581193
0.00579447
0.00575533
0.00570646
0.00563562
0.00561153
0.00538545
)
;

boundaryField
{
    inlet
    {
        type            fixedValue;
        value           uniform 2.0198e-05;
    }
    outlet
    {
        type            zeroGradient;
    }
    frontAndBack
    {
        type            empty;
    }
    noslipwall
    {
        type            calculated;
        value           nonuniform List<scalar> 
75
(
0.000116217
0.000107677
0.000105057
0.000103602
0.00010272
0.000102073
0.000101429
0.000100773
0.00010019
9.97348e-05
9.94018e-05
9.90976e-05
9.87372e-05
9.83072e-05
9.77932e-05
9.71834e-05
9.64672e-05
9.56406e-05
9.47121e-05
9.37053e-05
9.26693e-05
9.16611e-05
9.07576e-05
9.00005e-05
8.94441e-05
8.90596e-05
8.88734e-05
8.87873e-05
8.88174e-05
8.88942e-05
4.66642e-05
4.26806e-05
4.21405e-05
4.18447e-05
4.17399e-05
4.17555e-05
4.19751e-05
4.2322e-05
4.26338e-05
4.35188e-05
1.50207e-05
1.50246e-05
1.52314e-05
1.5774e-05
1.60475e-05
1.61373e-05
1.59111e-05
1.55018e-05
1.51496e-05
1.50002e-05
1.51053e-05
1.52717e-05
1.55143e-05
1.57464e-05
1.59458e-05
1.61124e-05
1.62409e-05
1.63672e-05
1.64363e-05
1.65683e-05
0.000441713
1.99343e-05
1.77549e-05
1.55342e-05
1.67315e-05
2.08496e-05
2.53436e-05
2.94464e-05
3.30619e-05
3.64139e-05
3.90814e-05
4.21556e-05
4.20947e-05
4.33944e-05
5.99691e-05
)
;
    }
}


// ************************************************************************* //
