/*--------------------------------*- C++ -*----------------------------------*\
  =========                 |
  \\      /  F ield         | OpenFOAM: The Open Source CFD Toolbox
   \\    /   O peration     | Website:  https://openfoam.org
    \\  /    A nd           | Version:  7
     \\/     M anipulation  |
\*---------------------------------------------------------------------------*/
FoamFile
{
    version     2.0;
    format      ascii;
    class       volScalarField;
    location    "486";
    object      nut;
}
// * * * * * * * * * * * * * * * * * * * * * * * * * * * * * * * * * * * * * //

dimensions      [0 2 -1 0 0 0 0];

internalField   nonuniform List<scalar> 
900
(
0.000403903
0.000377595
0.000372221
0.000369832
0.000369356
0.000369923
0.000373266
0.00037814
0.000383555
0.00037594
0.000419955
0.000553376
0.000575609
0.000582898
0.000587544
0.000590144
0.000593535
0.000593471
0.000606227
0.000580115
0.000460912
0.0008164
0.000920522
0.000963323
0.000982751
0.000996075
0.00100491
0.00100968
0.00101964
0.00101221
0.000408177
0.000952304
0.00116607
0.0012606
0.00130779
0.00133715
0.00135384
0.0013665
0.00137724
0.00137904
0.000263403
0.000929348
0.00127517
0.00144466
0.00153308
0.00158433
0.00161387
0.00163358
0.00164809
0.00165545
2.4608e-05
0.000698699
0.00117491
0.00144152
0.00158657
0.00166999
0.00171737
0.00174651
0.00176303
0.00177281
1.94329e-13
0.00028606
0.00077688
0.00114325
0.00136325
0.00148948
0.0015603
0.0015992
0.00161594
0.00162247
1.17715e-06
2.3356e-06
0.000179512
0.00045285
0.000688605
0.000856522
0.000959324
0.00101587
0.00103872
0.00104494
2.54859e-06
1.36194e-06
1.38728e-06
9.16024e-06
4.55203e-05
9.98681e-05
0.000141562
0.000167941
0.000179872
0.000185312
2.71288e-06
2.23513e-06
1.83766e-06
1.66437e-06
1.56801e-06
1.5499e-06
1.59992e-06
1.66383e-06
1.52997e-06
1.44983e-06
2.56566e-06
2.17785e-06
2.10954e-06
2.188e-06
2.10996e-06
2.20354e-06
2.18093e-06
2.058e-06
2.09515e-06
2.21265e-06
2.48431e-06
2.26498e-06
2.18351e-06
2.08497e-06
2.02375e-06
2.16337e-06
2.14792e-06
2.16551e-06
2.14464e-06
2.17648e-06
2.44027e-06
2.26805e-06
2.20481e-06
2.2087e-06
2.22686e-06
2.00086e-06
1.9895e-06
1.86564e-06
1.841e-06
1.66828e-06
2.72577e-06
2.2528e-06
1.85019e-06
1.55112e-06
1.27625e-06
1.18303e-06
1.04928e-06
9.05164e-07
8.08809e-07
7.64906e-07
2.39051e-06
1.1521e-06
1.92033e-06
9.01375e-06
3.53709e-05
7.67554e-05
0.000119817
0.000155527
0.000184013
0.000204627
3.08166e-07
4.80188e-05
0.000309429
0.000566774
0.000776114
0.000929725
0.00104008
0.00111631
0.00116943
0.001205
4.37461e-05
0.000655815
0.0011526
0.00145868
0.00163582
0.00174062
0.00180648
0.00184846
0.00187658
0.00189445
0.000515279
0.00123706
0.00154039
0.00168648
0.00177065
0.00182015
0.00185104
0.00186978
0.00188158
0.0018897
0.000951924
0.00132235
0.00137686
0.00140529
0.00142386
0.00143592
0.00144271
0.00144613
0.00144938
0.00145014
0.00139979
0.00136748
0.00131659
0.00129709
0.00128559
0.00127819
0.00127048
0.0012641
0.00125701
0.00125184
2.08861e-06
2.15486e-06
2.09837e-06
2.19868e-06
2.05636e-06
2.12917e-06
2.26489e-06
2.31234e-06
2.31513e-06
2.302e-06
2.39712e-06
2.45647e-06
2.38346e-06
2.48289e-06
2.61791e-06
2.61522e-06
2.53297e-06
2.55581e-06
2.58109e-06
2.62654e-06
2.18289e-06
2.12764e-06
2.14106e-06
2.10696e-06
2.13086e-06
2.19831e-06
2.15872e-06
2.07929e-06
1.98411e-06
1.95139e-06
1.85573e-06
1.70337e-06
1.57585e-06
1.48493e-06
1.35034e-06
1.26143e-06
1.11045e-06
1.01115e-06
1.00927e-06
9.32025e-07
1.6176e-06
1.69024e-06
1.5486e-06
1.43638e-06
1.29759e-06
1.09123e-06
9.73593e-07
7.79506e-07
5.80194e-07
4.14946e-07
2.72641e-07
1.98725e-07
1.00656e-07
6.46225e-08
3.86534e-08
2.26454e-08
1.60398e-08
1.24861e-08
1.01015e-08
1.08108e-08
7.53835e-07
7.98681e-07
7.60428e-07
8.00731e-07
7.96003e-07
8.33263e-07
9.89687e-07
1.24258e-06
1.80835e-06
3.01186e-06
5.21338e-06
9.64011e-06
1.74403e-05
2.96917e-05
4.60649e-05
6.70083e-05
9.12509e-05
0.000123348
0.000149208
0.000222529
0.000219253
0.000232069
0.000248256
0.000267395
0.000289355
0.00031516
0.000346306
0.000382785
0.000425886
0.000475615
0.000531705
0.00059302
0.000660658
0.000732344
0.000810176
0.000893651
0.000982568
0.00108646
0.00118056
0.00139146
0.00122957
0.00125112
0.00127548
0.00130338
0.00133438
0.00137139
0.00141227
0.00145878
0.00150937
0.00156656
0.00162945
0.00169469
0.00176436
0.00183719
0.00191322
0.00199386
0.00207829
0.00216905
0.00225193
0.00240845
0.00190695
0.00191715
0.00193034
0.00194393
0.00195865
0.00197561
0.00199517
0.00201701
0.00204234
0.00206929
0.00210097
0.0021366
0.00217509
0.00221888
0.0022684
0.00232097
0.00237737
0.00243727
0.00249034
0.00258231
0.00189419
0.00189762
0.00190168
0.00190738
0.00191228
0.00191873
0.00192594
0.0019342
0.00194298
0.00195457
0.00196927
0.00198594
0.00200675
0.00203194
0.00205872
0.00208797
0.0021188
0.00214717
0.00217458
0.00221315
0.001452
0.00145165
0.00145208
0.00145231
0.00145367
0.00145288
0.00145411
0.00145435
0.00145387
0.00145423
0.00145431
0.00145443
0.00145451
0.0014548
0.00145647
0.00145632
0.00145737
0.00145784
0.00145892
0.00146024
0.0012475
0.00124391
0.00123937
0.00123434
0.00122762
0.00121912
0.00121004
0.00119826
0.00118663
0.00117175
0.00115656
0.00114119
0.00112696
0.00111523
0.00110575
0.00109898
0.00109515
0.00109193
0.00109198
0.00109231
0.000596253
0.00102416
0.00166562
0.00233901
0.00291578
0.00332067
0.00355529
0.00367113
0.00374534
0.00382851
0.00394
0.00407035
0.00420204
0.00431756
0.00440771
0.00446871
0.00450913
0.00452016
0.00455705
0.00436456
0.000725016
0.000937056
0.00133107
0.00186568
0.00239039
0.00278767
0.00303687
0.0031804
0.0032842
0.00339851
0.0035445
0.00371838
0.00389964
0.004067
0.00420811
0.00431515
0.00439623
0.00444242
0.00450865
0.0043344
0.00108223
0.00117101
0.00132538
0.00158866
0.00193159
0.00225309
0.00248854
0.00263878
0.00275058
0.00287025
0.00302741
0.0032337
0.00346386
0.00369269
0.00389701
0.00406676
0.00420297
0.00429955
0.00440483
0.00428906
0.00141559
0.00146316
0.00153139
0.00163767
0.00178525
0.00195149
0.00209292
0.00218993
0.00225356
0.00231939
0.00243012
0.00261219
0.00285948
0.00314148
0.00341955
0.00366811
0.00387914
0.0040458
0.00420377
0.0041965
0.00167362
0.00169769
0.00173164
0.00177674
0.00183127
0.00188434
0.00191673
0.00191851
0.00189205
0.00186117
0.00186427
0.00193755
0.00210998
0.00238044
0.00270689
0.00304013
0.00334553
0.00360662
0.00383792
0.00399452
0.00178115
0.00179052
0.0018015
0.00181139
0.00181329
0.00179713
0.00175197
0.001675
0.00157377
0.0014695
0.00138404
0.00134289
0.00137096
0.00150208
0.00175373
0.00210526
0.00249432
0.00286991
0.00319926
0.00355321
0.00162395
0.00162181
0.00161268
0.00159292
0.00155295
0.00148555
0.00138622
0.00125932
0.00112195
0.00099203
0.000883212
0.000802977
0.000758068
0.000757551
0.000823945
0.000992394
0.00128541
0.00169909
0.00212548
0.00272079
0.00104276
0.0010335
0.00101583
0.000983753
0.000929215
0.000850715
0.000749735
0.000637598
0.000527196
0.000429351
0.000350591
0.000290772
0.000249944
0.000224819
0.000217465
0.000233518
0.000286888
0.000430565
0.00061676
0.00125928
0.000185597
0.000183252
0.000177029
0.000165855
0.000146509
0.000118461
8.24233e-05
4.56534e-05
1.90423e-05
6.14465e-06
1.67494e-06
4.95304e-07
1.76295e-07
8.20557e-08
4.74538e-08
3.87724e-08
4.22383e-08
1.82291e-07
4.93808e-08
7.20865e-05
1.38011e-06
1.38317e-06
1.20343e-06
1.07283e-06
8.78756e-07
6.35144e-07
5.27591e-07
4.26228e-07
3.94639e-07
4.01902e-07
3.9079e-07
4.70402e-07
5.36383e-07
6.49772e-07
7.18058e-07
8.38994e-07
8.77324e-07
9.16174e-07
8.63959e-07
9.15768e-07
3.03622e-07
1.21209e-08
1.51283e-07
3.67691e-07
5.24739e-07
5.58379e-07
4.10951e-07
2.33626e-07
1.29657e-07
8.46737e-08
8.2416e-08
1.56705e-07
2.81904e-07
4.29236e-07
5.64828e-07
6.30866e-07
7.69371e-07
8.62058e-07
9.52526e-07
1.11025e-06
8.87627e-05
5.95016e-06
3.47171e-05
4.00832e-05
3.67281e-05
4.5516e-05
5.31335e-05
5.22477e-05
4.68833e-05
4.02174e-05
3.25534e-05
3.14048e-05
5.23293e-05
6.70385e-05
7.82355e-05
8.82303e-05
9.52637e-05
0.000100788
0.000103949
0.000109458
0.000143725
8.2428e-05
0.000122994
0.000154748
0.000193406
0.000222142
0.000237841
0.000237584
0.000225919
0.00020826
0.000187029
0.000174174
0.000183767
0.000197527
0.000209491
0.000219328
0.000225674
0.000232112
0.000235585
0.000241392
0.000186582
0.000162376
0.000238722
0.000342801
0.000405197
0.000451101
0.000474018
0.000472179
0.000451358
0.000419339
0.000384694
0.000354671
0.000344191
0.000352116
0.000362046
0.000370882
0.000377487
0.000382767
0.000386973
0.000391686
0.000223248
0.000249943
0.000431568
0.000593563
0.000686897
0.000758753
0.000792177
0.00078814
0.000753334
0.000700875
0.000646003
0.00059442
0.000563432
0.000556776
0.000559129
0.000562477
0.000565716
0.000568666
0.000570519
0.000572672
0.00025703
0.000352533
0.000708364
0.000936102
0.0010715
0.00117673
0.00122545
0.00121513
0.00116069
0.00108071
0.000997062
0.00091824
0.00086258
0.000834053
0.000819438
0.000811276
0.000806173
0.000801895
0.000799611
0.000794587
0.000297193
0.000520092
0.0010941
0.00139959
0.00159041
0.00173848
0.00180448
0.00178523
0.00170351
0.00158699
0.00146542
0.00135331
0.00126402
0.00120339
0.00116379
0.00113522
0.00111463
0.00109702
0.00108606
0.00106811
0.000346596
0.000760131
0.00154751
0.0019661
0.00226019
0.00247106
0.00256094
0.00252908
0.00241383
0.00225039
0.00208046
0.00192036
0.00178754
0.00168487
0.0016084
0.0015485
0.0015039
0.00146319
0.00144049
0.0013999
0.000403091
0.00108907
0.00202085
0.00258175
0.0030108
0.00332001
0.00346384
0.00343676
0.00328951
0.0030745
0.0028451
0.00262568
0.00243602
0.00227887
0.0021561
0.00205491
0.00197818
0.00190785
0.00186571
0.00179685
0.000446011
0.00143325
0.00248751
0.00319246
0.00375856
0.00416798
0.00437227
0.00436496
0.00420356
0.00395298
0.00367563
0.00340509
0.00316208
0.0029533
0.00278029
0.00263708
0.00252399
0.00242096
0.00235692
0.00225163
0.000487503
0.00175429
0.00291227
0.00374927
0.00443405
0.00492697
0.00517839
0.00518817
0.00502477
0.00475859
0.00445692
0.00415768
0.00388241
0.00363799
0.00342979
0.00325234
0.00310816
0.00297617
0.00289208
0.00274955
0.000511402
0.00201742
0.00324321
0.0041834
0.00496129
0.00550727
0.00578612
0.00580669
0.00564779
0.00538926
0.00509322
0.00479488
0.00451628
0.00426239
0.0040425
0.00384743
0.00368635
0.0035353
0.00343849
0.00326601
0.000515743
0.0021599
0.00340622
0.00440388
0.00522163
0.0057787
0.00605252
0.00607573
0.00593661
0.00571546
0.00546512
0.00521253
0.00497127
0.00474643
0.00454293
0.00435845
0.00420033
0.00404817
0.0039525
0.0037598
0.00049595
0.00214696
0.00330278
0.00426061
0.00502784
0.00553194
0.00576712
0.00578951
0.00569506
0.00555582
0.0054074
0.0052605
0.00511458
0.00497011
0.00483078
0.00469448
0.00457185
0.0044468
0.00437234
0.00417481
0.000964635
0.00178715
0.00267367
0.0034488
0.00406349
0.00446959
0.00466675
0.00471948
0.00471476
0.00470971
0.0047235
0.00474858
0.00476635
0.00477061
0.00475656
0.00472411
0.00468373
0.00462554
0.00460582
0.00441989
)
;

boundaryField
{
    inlet
    {
        type            fixedValue;
        value           uniform 1.0198e-05;
    }
    outlet
    {
        type            zeroGradient;
    }
    frontAndBack
    {
        type            empty;
    }
    noslipwall
    {
        type            nutUSpaldingWallFunction;
        Cmu             0.09;
        kappa           0.41;
        E               9.8;
        value           nonuniform List<scalar> 
75
(
8.49761e-05
7.74329e-05
7.51433e-05
7.38754e-05
7.31074e-05
7.25483e-05
7.19924e-05
7.14271e-05
7.09268e-05
7.05358e-05
7.02505e-05
6.99896e-05
6.96811e-05
6.93123e-05
6.88729e-05
6.83499e-05
6.77373e-05
6.70291e-05
6.62342e-05
6.53709e-05
6.44813e-05
6.36139e-05
6.28344e-05
6.21801e-05
6.17005e-05
6.13696e-05
6.12115e-05
6.1143e-05
6.11725e-05
6.12519e-05
2.55917e-05
2.21101e-05
2.16564e-05
2.14062e-05
2.13234e-05
2.13372e-05
2.15425e-05
2.18271e-05
2.21342e-05
2.28484e-05
1.28093e-08
1.65569e-08
9.15318e-08
3.85594e-07
5.70172e-07
6.51105e-07
5.39281e-07
3.0274e-07
9.66393e-08
9.29184e-10
5.11835e-08
1.38525e-07
2.75668e-07
4.0899e-07
5.27225e-07
6.34339e-07
7.17465e-07
7.9678e-07
8.41503e-07
9.27988e-07
0.00042648
3.6997e-06
2.21508e-06
5.07246e-07
8.55267e-07
3.69268e-06
7.22459e-06
1.0596e-05
1.36169e-05
1.64242e-05
1.86953e-05
2.13248e-05
2.12923e-05
2.28101e-05
3.68391e-05
)
;
    }
}


// ************************************************************************* //
