/*--------------------------------*- C++ -*----------------------------------*\
  =========                 |
  \\      /  F ield         | OpenFOAM: The Open Source CFD Toolbox
   \\    /   O peration     | Website:  https://openfoam.org
    \\  /    A nd           | Version:  7
     \\/     M anipulation  |
\*---------------------------------------------------------------------------*/
FoamFile
{
    version     2.0;
    format      ascii;
    class       volScalarField;
    location    "486";
    object      nut2;
}
// * * * * * * * * * * * * * * * * * * * * * * * * * * * * * * * * * * * * * //

dimensions      [0 2 -1 0 0 0 0];

internalField   nonuniform List<scalar> 
900
(
0.000467705
0.000438601
0.000432674
0.00042983
0.000428922
0.000429367
0.000432597
0.000436482
0.000443589
0.000434743
0.000482746
0.000635151
0.000661169
0.000670108
0.000674346
0.000677202
0.000680582
0.000680621
0.000693521
0.000664723
0.000529139
0.000935154
0.00105438
0.00110219
0.00112579
0.00114036
0.00114947
0.00115585
0.00116655
0.00115733
0.000470289
0.0010907
0.00133478
0.0014424
0.00149673
0.00152941
0.00154837
0.00156231
0.00157531
0.00157616
0.000307416
0.00106341
0.00145879
0.00165252
0.00175309
0.00181195
0.00184589
0.00186835
0.00188486
0.00189256
3.46362e-05
0.000801184
0.00134398
0.00164892
0.00181484
0.0019101
0.0019646
0.00199713
0.0020165
0.00202681
7.45555e-22
0.000332097
0.000889354
0.00130802
0.00155971
0.00170456
0.00178495
0.00182843
0.00184849
0.00185595
1.55793e-06
3.79415e-06
0.000212695
0.000519995
0.000788171
0.000979831
0.00109761
0.00116135
0.00118812
0.00119493
3.65441e-06
2.25213e-06
2.37345e-06
1.39208e-05
6.36081e-05
0.000125965
0.000172478
0.000200717
0.000214415
0.000219321
3.59618e-06
3.56067e-06
3.20206e-06
2.73477e-06
2.49474e-06
2.57427e-06
2.65401e-06
2.64099e-06
2.53718e-06
2.39757e-06
3.55931e-06
3.54255e-06
3.53213e-06
3.51388e-06
3.49509e-06
3.48914e-06
3.48802e-06
3.48952e-06
3.49307e-06
3.49714e-06
3.56643e-06
3.55571e-06
3.5495e-06
3.54605e-06
3.54443e-06
3.54469e-06
3.54635e-06
3.54787e-06
3.54801e-06
3.54678e-06
3.56363e-06
3.55483e-06
3.54372e-06
3.52046e-06
3.48211e-06
3.40975e-06
3.28666e-06
3.12749e-06
2.96571e-06
2.82664e-06
3.61376e-06
3.45906e-06
3.05309e-06
2.61384e-06
2.26141e-06
1.95596e-06
1.69147e-06
1.49603e-06
1.37362e-06
1.30569e-06
3.14011e-06
1.74092e-06
2.99099e-06
1.45208e-05
5.01689e-05
0.000100481
0.000148413
0.000188056
0.000218605
0.000240963
3.96342e-07
6.54938e-05
0.000358008
0.000648985
0.000887688
0.00106368
0.00118886
0.00127654
0.00133697
0.00137792
5.81365e-05
0.000751245
0.00131936
0.00167048
0.0018721
0.0019914
0.00206587
0.00211412
0.00214586
0.00216675
0.000592171
0.00141632
0.00176303
0.00193032
0.00202515
0.00208222
0.002117
0.00213831
0.00215153
0.00215985
0.00109101
0.00151384
0.00157653
0.00160778
0.00162935
0.00164288
0.00165078
0.0016552
0.00165764
0.00165899
0.00160431
0.00156794
0.0015105
0.00148791
0.00147538
0.00146634
0.00145743
0.00144834
0.00144016
0.00143365
3.50106e-06
3.50583e-06
3.51321e-06
3.52488e-06
3.54361e-06
3.57316e-06
3.61716e-06
3.67704e-06
3.75006e-06
3.82902e-06
3.9052e-06
3.97147e-06
4.02408e-06
4.06268e-06
4.08921e-06
4.10621e-06
4.11721e-06
4.12345e-06
4.1285e-06
4.13134e-06
3.54484e-06
3.54198e-06
3.53697e-06
3.52855e-06
3.5142e-06
3.49005e-06
3.45052e-06
3.38809e-06
3.29471e-06
3.16469e-06
2.99794e-06
2.80244e-06
2.59187e-06
2.38378e-06
2.19096e-06
2.02396e-06
1.88295e-06
1.76539e-06
1.6814e-06
1.53219e-06
2.71764e-06
2.6103e-06
2.47667e-06
2.31193e-06
2.11128e-06
1.87196e-06
1.59624e-06
1.29501e-06
9.89077e-07
7.05883e-07
4.70181e-07
2.9482e-07
1.76971e-07
1.04648e-07
6.25861e-08
3.93714e-08
2.62187e-08
1.95193e-08
1.51614e-08
1.44375e-08
1.26984e-06
1.24903e-06
1.23986e-06
1.25193e-06
1.30174e-06
1.41872e-06
1.65809e-06
2.12837e-06
3.04976e-06
4.86301e-06
8.38821e-06
1.48907e-05
2.58308e-05
4.20405e-05
6.33685e-05
8.87965e-05
0.000117282
0.000151669
0.000180235
0.000260923
0.000256988
0.000271736
0.000289215
0.000309951
0.000334626
0.000364041
0.000399075
0.000440585
0.000489271
0.000545467
0.000609075
0.000679514
0.000756144
0.000838355
0.00092638
0.00102111
0.00112342
0.00124188
0.00134963
0.00159106
0.00140582
0.00143035
0.00145831
0.00149019
0.00152652
0.00156787
0.00161477
0.00166761
0.00172659
0.00179155
0.00186204
0.00193736
0.00201695
0.00210036
0.00218779
0.00227948
0.00237579
0.00248037
0.00257522
0.00275425
0.00218074
0.00219288
0.00220657
0.00222202
0.00223947
0.00225917
0.00228143
0.00230655
0.00233487
0.00236674
0.00240257
0.0024428
0.00248792
0.00253815
0.00259377
0.00265397
0.0027185
0.00278626
0.00284824
0.00295232
0.00216525
0.00216981
0.00217487
0.00218047
0.00218673
0.00219376
0.00220177
0.00221106
0.00222204
0.00223529
0.00225149
0.00227129
0.00229516
0.00232296
0.00235439
0.00238767
0.00242257
0.00245575
0.00248621
0.00252946
0.00165977
0.00166035
0.00166091
0.00166143
0.00166189
0.00166226
0.00166252
0.00166266
0.0016627
0.0016627
0.00166276
0.00166294
0.0016634
0.00166398
0.00166493
0.00166553
0.00166693
0.00166671
0.00166874
0.00166965
0.0014288
0.00142429
0.00141893
0.00141252
0.00140484
0.00139562
0.00138466
0.0013718
0.00135709
0.0013408
0.00132359
0.00130637
0.00129039
0.00127649
0.0012657
0.00125777
0.00125325
0.00125052
0.00125028
0.00125071
0.000682978
0.00117049
0.00190339
0.0026732
0.00333365
0.00379724
0.00406417
0.00419662
0.00428172
0.00437741
0.00450475
0.00465414
0.00480468
0.00493685
0.00503964
0.00510938
0.00515466
0.00516751
0.00521019
0.00499053
0.000829396
0.00107171
0.00152232
0.00213351
0.00273291
0.0031869
0.00347191
0.00363574
0.00375467
0.0038851
0.00405257
0.00425102
0.00445821
0.00465015
0.00481091
0.00493382
0.00502554
0.00507927
0.00515477
0.00495536
0.00123815
0.00133972
0.00151536
0.00181593
0.00220796
0.00257598
0.0028446
0.00301719
0.00314479
0.0032812
0.00346326
0.00369639
0.00395953
0.00422124
0.00445577
0.00464977
0.00480505
0.00491585
0.00503597
0.00490402
0.00161843
0.00167282
0.00175179
0.00187239
0.00204112
0.00223033
0.00239289
0.00250314
0.00257593
0.00265205
0.002779
0.0029863
0.00326888
0.00359104
0.00390915
0.0041939
0.00443485
0.00462509
0.004806
0.00479803
0.00191343
0.00194137
0.00198
0.00203155
0.00209373
0.00215411
0.00219205
0.00219288
0.00216274
0.00212855
0.00213113
0.00221498
0.0024127
0.00272118
0.00309435
0.00347579
0.00382481
0.00412324
0.00438728
0.00456682
0.00203638
0.00204704
0.00205951
0.00207032
0.00207267
0.00205473
0.00200353
0.00191459
0.00179926
0.0016801
0.00158314
0.00153495
0.00156724
0.0017173
0.00200506
0.00240679
0.00285186
0.00328157
0.00365747
0.00406178
0.00185671
0.00185347
0.00184392
0.00182097
0.00177556
0.0016982
0.00158419
0.00143984
0.00128288
0.00113407
0.00100951
0.000918461
0.000867162
0.000867033
0.00094231
0.00113477
0.00147011
0.00194239
0.0024299
0.00311081
0.00119183
0.0011817
0.00116115
0.0011236
0.00106206
0.000972563
0.000858045
0.000729804
0.000603657
0.000492645
0.000403359
0.000336684
0.000290674
0.000263489
0.000254915
0.000273381
0.000332306
0.000494283
0.000705726
0.00144027
0.000219751
0.000217235
0.000210845
0.000198434
0.000177556
0.000146694
0.000106808
6.35662e-05
2.83703e-05
9.46863e-06
2.7066e-06
7.98623e-07
2.82002e-07
1.30186e-07
7.95339e-08
6.97478e-08
6.38583e-08
3.22587e-07
8.87106e-08
9.52504e-05
2.26352e-06
2.11247e-06
1.91047e-06
1.65593e-06
1.36367e-06
1.07395e-06
8.3692e-07
6.84752e-07
6.20847e-07
6.31807e-07
7.00198e-07
8.07631e-07
9.34965e-07
1.0643e-06
1.18322e-06
1.28279e-06
1.3643e-06
1.42348e-06
1.45936e-06
1.55738e-06
4.97374e-07
1.89642e-08
2.64195e-07
7.01544e-07
8.90022e-07
9.31639e-07
7.12106e-07
3.6892e-07
1.92783e-07
1.41742e-07
1.31711e-07
2.70473e-07
5.01928e-07
7.38075e-07
9.57922e-07
1.15748e-06
1.32011e-06
1.48421e-06
1.58151e-06
1.76826e-06
0.0001144
1.0109e-05
5.14389e-05
5.79826e-05
5.41152e-05
6.45919e-05
7.1744e-05
7.18132e-05
6.56858e-05
5.65579e-05
4.75159e-05
4.69332e-05
7.26676e-05
9.12489e-05
0.000105164
0.000115303
0.000122469
0.000128778
0.00013221
0.000137928
0.000175656
0.000107334
0.000153077
0.000187183
0.000229022
0.000261298
0.000278067
0.000278282
0.000265704
0.000245401
0.000223505
0.000208535
0.000218748
0.000234146
0.000246987
0.000257266
0.0002648
0.000271446
0.000275193
0.000281136
0.000222174
0.000196641
0.000280007
0.000395747
0.000465519
0.000517909
0.000543858
0.00054179
0.000518192
0.000481934
0.000443433
0.000408351
0.000397211
0.000406129
0.000417376
0.000427157
0.000434574
0.000441058
0.000444839
0.0004504
0.000261728
0.000291161
0.000495654
0.000680376
0.000786329
0.00086806
0.000907205
0.000901482
0.000861691
0.000802145
0.000739307
0.000681074
0.00064553
0.000637714
0.000640043
0.000644438
0.000648222
0.000651429
0.000653511
0.000655758
0.000299504
0.000406227
0.00081034
0.00107205
0.00122549
0.00134582
0.00140144
0.00138957
0.00132728
0.00123611
0.00114045
0.00105136
0.0009871
0.000953482
0.000937359
0.000928288
0.000922685
0.000917481
0.000914878
0.000908961
0.000343556
0.00059597
0.00125065
0.00160157
0.00181912
0.00198794
0.00206278
0.00204073
0.00194795
0.00181511
0.00167664
0.00154702
0.00144569
0.0013765
0.00133095
0.00129809
0.00127492
0.00125389
0.00124212
0.00122091
0.000399576
0.000869271
0.00176878
0.00224874
0.00258384
0.0028256
0.00292851
0.00289241
0.00275967
0.00257308
0.00237916
0.00219592
0.00204402
0.00192654
0.00183894
0.00177028
0.0017195
0.00167346
0.00164666
0.00160098
0.000463607
0.00124517
0.00231026
0.00295212
0.00344254
0.00379613
0.00396126
0.00393024
0.00376084
0.00351445
0.00325254
0.00300204
0.002785
0.00260624
0.00246493
0.00234936
0.00226131
0.0021814
0.0021335
0.00205367
0.000511566
0.00163812
0.00284383
0.00365031
0.00429641
0.00476481
0.00499942
0.004991
0.00480624
0.00451982
0.00420266
0.00389295
0.00361482
0.0033761
0.00317964
0.00301464
0.00288533
0.00276743
0.00269481
0.00257399
0.000558646
0.00200538
0.00332963
0.00428545
0.00506895
0.0056323
0.00592071
0.0059327
0.00574449
0.00544087
0.00509609
0.00475365
0.00443827
0.00415933
0.00392226
0.00371819
0.0035537
0.00340213
0.00330659
0.00314416
0.000585723
0.00230565
0.00370794
0.00478328
0.00567171
0.00629715
0.00661492
0.00663891
0.00645737
0.00616123
0.0058223
0.00548215
0.00516309
0.00487405
0.00462149
0.00439877
0.00421436
0.00404158
0.00393137
0.00373365
0.000592045
0.00246967
0.00389491
0.00503534
0.00597008
0.00660718
0.00692024
0.00694653
0.00678765
0.00653441
0.00624801
0.00595928
0.00568337
0.00542624
0.00519413
0.00498287
0.00480258
0.00462885
0.00451907
0.00429843
0.000569429
0.00245562
0.00377654
0.00487128
0.00574975
0.00632479
0.00659372
0.00661936
0.00651173
0.00635255
0.00618313
0.00601432
0.00584761
0.00568253
0.00552289
0.00536741
0.00522757
0.00508402
0.00499899
0.00477318
0.0011037
0.00204499
0.00305657
0.00394239
0.00464626
0.00510833
0.00533528
0.00539542
0.00539014
0.00538503
0.00540116
0.00542841
0.0054502
0.0054544
0.00543808
0.00540116
0.00535513
0.00528851
0.00526588
0.0050532
)
;

boundaryField
{
    inlet
    {
        type            fixedValue;
        value           uniform 1.0198e-05;
    }
    outlet
    {
        type            zeroGradient;
    }
    frontAndBack
    {
        type            empty;
    }
    noslipwall
    {
        type            nutUSpaldingWallFunction;
        Cmu             0.09;
        kappa           0.41;
        E               9.8;
        value           nonuniform List<scalar> 
75
(
9.58615e-05
8.76472e-05
8.5135e-05
8.37413e-05
8.28968e-05
8.22784e-05
8.16634e-05
8.1037e-05
8.04814e-05
8.00472e-05
7.97299e-05
7.944e-05
7.90967e-05
7.86868e-05
7.81974e-05
7.76162e-05
7.69341e-05
7.61465e-05
7.5262e-05
7.43024e-05
7.33147e-05
7.23528e-05
7.14901e-05
7.07668e-05
7.02358e-05
6.9869e-05
6.96921e-05
6.9612e-05
6.9642e-05
6.97199e-05
2.96594e-05
2.5839e-05
2.53271e-05
2.50461e-05
2.49485e-05
2.49634e-05
2.51785e-05
2.55046e-05
2.58155e-05
2.66442e-05
1.78181e-08
2.22351e-08
1.73426e-07
6.2673e-07
8.71723e-07
9.61124e-07
7.76742e-07
4.30123e-07
1.30944e-07
7.6458e-11
8.43792e-08
2.20861e-07
4.25581e-07
6.22601e-07
7.93534e-07
9.39374e-07
1.05217e-06
1.1622e-06
1.22287e-06
1.33923e-06
0.000426627
4.509e-06
2.57898e-06
5.29678e-07
1.3836e-06
5.06166e-06
9.24213e-06
1.31101e-05
1.65351e-05
1.97116e-05
2.22528e-05
2.51854e-05
2.51378e-05
2.65364e-05
4.22884e-05
)
;
    }
}


// ************************************************************************* //
