/*--------------------------------*- C++ -*----------------------------------*\
  =========                 |
  \\      /  F ield         | OpenFOAM: The Open Source CFD Toolbox
   \\    /   O peration     | Website:  https://openfoam.org
    \\  /    A nd           | Version:  7
     \\/     M anipulation  |
\*---------------------------------------------------------------------------*/
FoamFile
{
    version     2.0;
    format      ascii;
    class       volScalarField;
    location    "486";
    object      nut3;
}
// * * * * * * * * * * * * * * * * * * * * * * * * * * * * * * * * * * * * * //

dimensions      [0 2 -1 0 0 0 0];

internalField   nonuniform List<scalar> 
900
(
0.000499446
0.00046891
0.000462698
0.000459626
0.000458503
0.000458889
0.00046207
0.000465476
0.000473429
0.00046396
0.000514012
0.000675999
0.000703921
0.000713688
0.000717724
0.00072071
0.000724087
0.000724176
0.000737156
0.000707003
0.000563157
0.000994588
0.00112139
0.00117171
0.00119741
0.00121259
0.00122185
0.00122904
0.00124011
0.00122999
0.0005012
0.00115998
0.00141927
0.00153344
0.00159136
0.0016257
0.0016458
0.00166038
0.00167451
0.00167488
0.00032907
0.00113052
0.00155075
0.00175662
0.00186328
0.00192596
0.0019621
0.00198595
0.00200346
0.00201132
4.017e-05
0.000852449
0.00142864
0.0017528
0.00192917
0.00203037
0.00208843
0.00212266
0.00214346
0.00215404
1.34329e-14
0.000354812
0.000945636
0.00139054
0.00165811
0.00181228
0.00189747
0.00194324
0.00196497
0.0019729
1.77868e-06
4.71909e-06
0.000228839
0.000553466
0.000837973
0.00104155
0.00116685
0.0012342
0.00126292
0.00127003
4.31648e-06
2.82557e-06
3.01846e-06
1.67528e-05
7.30731e-05
0.000138744
0.000187465
0.000216635
0.000231207
0.000235878
4.10564e-06
4.39462e-06
4.09798e-06
3.42056e-06
3.08026e-06
3.2344e-06
3.33263e-06
3.25726e-06
3.1859e-06
3.00762e-06
4.14513e-06
4.40949e-06
4.44793e-06
4.35133e-06
4.38256e-06
4.29595e-06
4.31211e-06
4.41656e-06
4.39141e-06
4.30253e-06
4.21488e-06
4.36229e-06
4.41696e-06
4.49328e-06
4.54349e-06
4.42511e-06
4.4408e-06
4.4289e-06
4.44642e-06
4.41799e-06
4.24225e-06
4.35835e-06
4.3896e-06
4.34608e-06
4.26532e-06
4.32459e-06
4.11757e-06
3.94187e-06
3.67888e-06
3.57905e-06
4.12594e-06
4.20541e-06
3.82409e-06
3.30317e-06
2.91673e-06
2.45462e-06
2.1014e-06
1.87814e-06
1.74391e-06
1.66125e-06
3.57107e-06
2.10515e-06
3.65921e-06
1.78649e-05
5.81114e-05
0.000112294
0.000162313
0.000203826
0.000235433
0.000258697
4.46922e-07
7.45827e-05
0.000382034
0.000690059
0.000943522
0.00113074
0.00126335
0.00135677
0.00142088
0.00146452
6.56728e-05
0.000798966
0.00140286
0.00177656
0.00199046
0.00211701
0.0021958
0.00224719
0.00228074
0.00230315
0.000630555
0.0015061
0.00187454
0.00205245
0.00215262
0.0022135
0.00225022
0.00227282
0.00228676
0.00229517
0.00116064
0.00160975
0.00167653
0.0017092
0.00173226
0.00174654
0.00175499
0.00175992
0.00176195
0.00176359
0.00170675
0.00166834
0.00160762
0.00158348
0.00157044
0.00156057
0.00155106
0.0015406
0.00153188
0.0015247
4.41094e-06
4.36425e-06
4.42407e-06
4.36181e-06
4.51357e-06
4.50352e-06
4.4687e-06
4.53447e-06
4.65901e-06
4.80771e-06
4.86232e-06
4.92935e-06
5.08172e-06
5.06661e-06
5.00447e-06
5.03586e-06
5.12068e-06
5.11302e-06
5.10145e-06
5.07028e-06
4.40936e-06
4.45004e-06
4.43007e-06
4.44381e-06
4.39866e-06
4.3017e-06
4.26489e-06
4.22077e-06
4.13618e-06
3.93574e-06
3.72307e-06
3.50678e-06
3.24358e-06
2.95439e-06
2.72781e-06
2.50879e-06
2.38751e-06
2.26516e-06
2.11724e-06
1.91924e-06
3.42978e-06
3.18317e-06
3.06453e-06
2.86864e-06
2.63184e-06
2.3847e-06
1.99713e-06
1.6296e-06
1.2583e-06
8.97629e-07
6.01477e-07
3.54175e-07
2.28313e-07
1.30524e-07
7.80653e-08
5.0582e-08
3.28368e-08
2.39912e-08
1.83129e-08
1.65637e-08
1.60704e-06
1.53299e-06
1.54835e-06
1.53639e-06
1.62751e-06
1.80291e-06
2.09273e-06
2.70884e-06
3.85348e-06
6.02829e-06
1.03564e-05
1.80248e-05
3.06233e-05
4.87673e-05
7.2407e-05
9.97729e-05
0.00013008
0.000165435
0.000195285
0.00027971
0.000275446
0.000291173
0.000309334
0.000330909
0.000356976
0.000388231
0.000425252
0.000469318
0.000520839
0.000580309
0.000647712
0.000722742
0.000803897
0.000891393
0.000984538
0.00108491
0.00119394
0.00131971
0.0014343
0.00169102
0.00149408
0.00152011
0.00154988
0.00158375
0.00162275
0.00166627
0.00171619
0.00177221
0.00183539
0.00190425
0.00197854
0.00205891
0.00214348
0.00223219
0.00232532
0.00242255
0.00252481
0.00263632
0.00273716
0.00292747
0.00231789
0.00233099
0.00234493
0.00236132
0.00238013
0.00240121
0.00242483
0.00245159
0.0024814
0.00251573
0.00255365
0.00259618
0.00264463
0.00269808
0.00275675
0.00282078
0.00288939
0.00296108
0.00302753
0.00313767
0.00230102
0.00230615
0.00231171
0.00231727
0.0023242
0.00233153
0.00233994
0.00234973
0.00236182
0.0023759
0.00239286
0.00241422
0.00243964
0.00246873
0.0025025
0.0025378
0.00257474
0.00261033
0.00264232
0.00268791
0.00176384
0.00176488
0.00176551
0.00176617
0.00176618
0.00176713
0.0017669
0.00176699
0.0017673
0.00176711
0.00176716
0.00176738
0.00176803
0.00176876
0.00176935
0.00177031
0.00177189
0.00177133
0.00177384
0.00177454
0.0015196
0.00151462
0.00150885
0.00150176
0.00149359
0.00148401
0.0014721
0.00145871
0.00144245
0.00142545
0.00140723
0.00138909
0.00137223
0.00135725
0.0013458
0.00133728
0.00133242
0.00132993
0.00132954
0.00133004
0.000726322
0.00124376
0.00202248
0.0028406
0.00354298
0.00403596
0.00431909
0.00445986
0.00455041
0.00465237
0.00478765
0.00494658
0.00510657
0.00524707
0.00535619
0.00543031
0.00547803
0.00549178
0.00553738
0.0053041
0.000881616
0.00113913
0.00161811
0.00226766
0.00290448
0.00338689
0.00368984
0.00386384
0.00399034
0.00412885
0.00430709
0.00451784
0.00473802
0.00494228
0.00511287
0.00524373
0.00534078
0.00539829
0.00547843
0.00526642
0.00131622
0.00142421
0.00161051
0.00192976
0.00234639
0.00273773
0.00302296
0.00320674
0.00334226
0.00348705
0.0036816
0.00392818
0.00420782
0.00448602
0.00473568
0.00494183
0.00510665
0.00522458
0.00535213
0.00521208
0.00172003
0.00177784
0.00186218
0.00198996
0.00216929
0.00237
0.00254314
0.00266003
0.00273741
0.00281868
0.00295377
0.00317371
0.00347396
0.00381625
0.0041544
0.00445729
0.00471323
0.00491528
0.00510769
0.00509935
0.00203355
0.00206343
0.0021044
0.00215918
0.00222519
0.00228924
0.00232996
0.00233032
0.00229834
0.00226248
0.00226481
0.00235395
0.00256433
0.00289187
0.00328844
0.00369403
0.0040649
0.00438203
0.00466248
0.00485351
0.00216422
0.00217553
0.00218875
0.00220002
0.00220259
0.00218376
0.00212953
0.0020346
0.00191221
0.00178559
0.00168286
0.00163113
0.00166554
0.00182509
0.00213095
0.00255783
0.00303096
0.00348778
0.003887
0.00431653
0.00197329
0.0019695
0.00195975
0.0019352
0.00188707
0.00180471
0.00168335
0.00153024
0.00136347
0.00120519
0.00107274
0.000976257
0.00092175
0.000921814
0.00100155
0.00120605
0.00156261
0.00206426
0.00258239
0.00330619
0.00126646
0.0012559
0.0012339
0.00119362
0.00112856
0.00103355
0.000912239
0.000775907
0.000641837
0.000524173
0.000429544
0.000359352
0.000310688
0.000282418
0.00027323
0.000292918
0.000354722
0.000526024
0.000750201
0.00153091
0.000236377
0.000233772
0.000227283
0.000214253
0.000192611
0.000160425
0.000118885
7.29358e-05
3.36757e-05
1.14846e-05
3.36252e-06
9.93264e-07
3.49815e-07
1.60978e-07
1.00638e-07
9.08489e-08
7.73661e-08
4.17134e-07
1.15478e-07
0.000106841
2.83037e-06
2.56516e-06
2.35798e-06
2.0205e-06
1.6681e-06
1.36157e-06
1.03379e-06
8.50475e-07
7.64424e-07
7.77667e-07
9.09278e-07
1.03071e-06
1.20031e-06
1.33191e-06
1.48416e-06
1.55951e-06
1.67033e-06
1.74206e-06
1.84851e-06
1.97783e-06
6.22934e-07
2.33172e-08
3.39843e-07
9.33961e-07
1.13011e-06
1.17496e-06
9.12354e-07
4.55102e-07
2.31847e-07
1.79236e-07
1.63363e-07
3.46255e-07
6.50404e-07
9.4263e-07
1.21616e-06
1.51609e-06
1.68307e-06
1.89447e-06
1.98896e-06
2.1857e-06
0.000127028
1.27286e-05
6.04684e-05
6.7488e-05
6.34449e-05
7.45792e-05
8.13277e-05
8.19062e-05
7.54962e-05
6.52167e-05
5.56345e-05
5.5411e-05
8.31574e-05
0.000103424
0.000118511
0.000128621
0.0001358
0.00014245
0.000145995
0.000151792
0.000191123
0.000119663
0.00016767
0.000202908
0.000246371
0.00028045
0.000297794
0.000298236
0.000285173
0.000263534
0.00024124
0.000225223
0.00023576
0.000251989
0.000265294
0.000275822
0.000283951
0.000290722
0.000294613
0.000300644
0.000239487
0.000213246
0.000300249
0.000422004
0.000495539
0.00055121
0.000578692
0.000576508
0.000551506
0.000513102
0.000472634
0.000434995
0.000423507
0.000432932
0.000444849
0.000455114
0.000462946
0.000470034
0.000473613
0.000479602
0.000280559
0.000311411
0.000527579
0.000723764
0.000836064
0.000922754
0.00096477
0.000958203
0.000915909
0.000852803
0.000785963
0.000724383
0.000686546
0.000678147
0.000680466
0.000685385
0.000689444
0.000692781
0.000694978
0.000697273
0.000320388
0.000432873
0.000861354
0.00114011
0.00130259
0.0014305
0.00148958
0.00147693
0.00141071
0.00131393
0.00121224
0.001118
0.00104943
0.00101326
0.000996377
0.00098685
0.000980995
0.000975327
0.000972564
0.000966198
0.000366464
0.000633854
0.00132905
0.00170273
0.00193368
0.0021129
0.00219217
0.00216871
0.00207038
0.00192937
0.00178244
0.00164404
0.00153667
0.0014632
0.00141467
0.00137965
0.00135519
0.00133245
0.00132027
0.00129742
0.000425858
0.000923882
0.00187962
0.00239031
0.00274596
0.0030032
0.00311264
0.00307441
0.00293291
0.00273472
0.00252879
0.00233395
0.00217248
0.00204759
0.00195442
0.00188137
0.00182749
0.00177877
0.00174992
0.00170169
0.00049372
0.00132333
0.00245522
0.00313764
0.00365881
0.00403463
0.00421043
0.00417744
0.00399694
0.00373483
0.00345665
0.00319057
0.00295982
0.00277023
0.00261963
0.00249685
0.00240314
0.00231842
0.00226764
0.00218232
0.000544239
0.00174074
0.00302233
0.00387967
0.00456584
0.00506378
0.00531359
0.00530461
0.00510815
0.00480377
0.00446667
0.00413734
0.00384162
0.00358789
0.00337969
0.00320377
0.00306634
0.00294099
0.00286406
0.00273547
0.000594143
0.00213115
0.00353869
0.00455405
0.00538699
0.00598563
0.00629257
0.00630566
0.00610503
0.00578265
0.00541628
0.0050522
0.00471672
0.00442049
0.00416895
0.00395156
0.00377689
0.00361551
0.00351423
0.00334183
0.000622823
0.00245002
0.00394073
0.00508378
0.00602758
0.00669283
0.00703011
0.00705581
0.00686291
0.00654794
0.00618753
0.00582643
0.00548711
0.00518046
0.00491152
0.00467496
0.00447886
0.0042952
0.00417827
0.0039679
0.000630135
0.00262485
0.00413971
0.00535166
0.006345
0.00702219
0.00735492
0.00738274
0.00721397
0.00694465
0.00664019
0.00633336
0.00604009
0.00576679
0.00552035
0.00529567
0.00510426
0.00491974
0.00480289
0.00456825
0.000606096
0.00261023
0.00401386
0.00517719
0.00611138
0.00672197
0.0070078
0.00703507
0.00692084
0.00675166
0.00657172
0.00639193
0.00621481
0.0060394
0.00586959
0.00570451
0.00555605
0.00540323
0.0053129
0.00507293
0.00117333
0.00217414
0.00324838
0.00418964
0.00493819
0.0054283
0.00567017
0.00573403
0.00572847
0.00572332
0.00574063
0.00576897
0.00579277
0.00579693
0.00577947
0.00574033
0.00569146
0.00562062
0.00559653
0.00537045
)
;

boundaryField
{
    inlet
    {
        type            fixedValue;
        value           uniform 1.0198e-05;
    }
    outlet
    {
        type            zeroGradient;
    }
    frontAndBack
    {
        type            empty;
    }
    noslipwall
    {
        type            nutUSpaldingWallFunction;
        Cmu             0.09;
        kappa           0.41;
        E               9.8;
        value           nonuniform List<scalar> 
75
(
0.000101217
9.26772e-05
9.00568e-05
8.8602e-05
8.77203e-05
8.7073e-05
8.64291e-05
8.57728e-05
8.51902e-05
8.47348e-05
8.44018e-05
8.40976e-05
8.37372e-05
8.33072e-05
8.27932e-05
8.21834e-05
8.14672e-05
8.06406e-05
7.97121e-05
7.87053e-05
7.76693e-05
7.66611e-05
7.57576e-05
7.50005e-05
7.44441e-05
7.40596e-05
7.38734e-05
7.37873e-05
7.38174e-05
7.38942e-05
3.16642e-05
2.76806e-05
2.71405e-05
2.68447e-05
2.67399e-05
2.67555e-05
2.69751e-05
2.7322e-05
2.76338e-05
2.85188e-05
2.07278e-08
2.46047e-08
2.31357e-07
7.73952e-07
1.04752e-06
1.13734e-06
9.11123e-07
5.01831e-07
1.4964e-07
2.19923e-10
1.05254e-07
2.7167e-07
5.14304e-07
7.46357e-07
9.45778e-07
1.11241e-06
1.2409e-06
1.36721e-06
1.43626e-06
1.5683e-06
0.000426713
4.93429e-06
2.75495e-06
5.34157e-07
1.73153e-06
5.84961e-06
1.03436e-05
1.44464e-05
1.80619e-05
2.14139e-05
2.40814e-05
2.71556e-05
2.70947e-05
2.83944e-05
4.49691e-05
)
;
    }
}


// ************************************************************************* //
