/*--------------------------------*- C++ -*----------------------------------*\
  =========                 |
  \\      /  F ield         | OpenFOAM: The Open Source CFD Toolbox
   \\    /   O peration     | Website:  https://openfoam.org
    \\  /    A nd           | Version:  7
     \\/     M anipulation  |
\*---------------------------------------------------------------------------*/
FoamFile
{
    version     2.0;
    format      ascii;
    class       volScalarField;
    location    "486";
    object      nut4;
}
// * * * * * * * * * * * * * * * * * * * * * * * * * * * * * * * * * * * * * //

dimensions      [0 2 -1 0 0 0 0];

internalField   nonuniform List<scalar> 
900
(
0.000531084
0.0004991
0.0004926
0.000489297
0.000487961
0.000488288
0.000491424
0.000494357
0.000503157
0.000493062
0.000545187
0.000716792
0.000746621
0.000757217
0.000761054
0.000764169
0.000767543
0.000767684
0.000780745
0.000749233
0.000597098
0.001054
0.00118839
0.00124122
0.00126901
0.00128482
0.00129421
0.00130221
0.00131365
0.00130264
0.000532014
0.00122925
0.00150374
0.00162447
0.00168597
0.00172198
0.00174321
0.00175845
0.0017737
0.0017736
0.000350529
0.00119761
0.0016427
0.00186072
0.00197347
0.00203996
0.00207831
0.00210354
0.00212205
0.00213007
4.59794e-05
0.000903679
0.0015133
0.00185668
0.0020435
0.00215063
0.00221226
0.00224819
0.00227042
0.00228127
2.08406e-13
0.000377355
0.00100189
0.00147304
0.0017565
0.00192
0.00200999
0.00205805
0.00208144
0.00208984
2.02093e-06
5.78543e-06
0.000244724
0.000586858
0.000887739
0.00110325
0.00123606
0.00130702
0.00133771
0.00134512
5.05578e-06
3.49409e-06
3.77661e-06
1.9875e-05
8.26643e-05
0.000151297
0.000202159
0.000232276
0.000247724
0.000252176
4.6623e-06
5.3522e-06
5.15157e-06
4.21698e-06
3.75524e-06
4.00371e-06
4.12293e-06
3.96683e-06
3.94174e-06
3.71836e-06
4.79354e-06
5.41029e-06
5.51281e-06
5.3151e-06
5.41193e-06
5.22121e-06
5.2596e-06
5.49806e-06
5.43506e-06
5.22569e-06
4.93937e-06
5.28501e-06
5.41819e-06
5.59888e-06
5.71789e-06
5.44331e-06
5.47719e-06
5.44777e-06
5.48792e-06
5.42416e-06
5.00397e-06
5.2772e-06
5.36315e-06
5.29439e-06
5.16065e-06
5.39356e-06
5.08153e-06
4.89079e-06
4.50209e-06
4.45934e-06
4.68557e-06
5.05466e-06
4.7192e-06
4.10934e-06
3.69433e-06
3.03675e-06
2.57733e-06
2.32521e-06
2.18063e-06
2.08132e-06
4.04119e-06
2.52043e-06
4.4237e-06
2.15848e-05
6.62834e-05
0.000123972
0.000175937
0.0002193
0.000251994
0.000276185
5.02109e-07
8.3774e-05
0.00040591
0.000731082
0.000999327
0.00119778
0.00133783
0.00143699
0.00150477
0.00155111
7.33421e-05
0.000846649
0.00148636
0.00188263
0.0021088
0.00224262
0.00232572
0.00238026
0.00241561
0.00243954
0.000668876
0.00159587
0.00198605
0.00217458
0.0022801
0.00234477
0.00238343
0.00240733
0.00242198
0.00243048
0.00123026
0.00170564
0.00177652
0.00181061
0.00183517
0.00185019
0.0018592
0.00186462
0.00186625
0.00186819
0.00180917
0.00176873
0.00170473
0.00167903
0.00166548
0.00165478
0.00164468
0.00163286
0.00162359
0.00161574
5.46937e-06
5.35543e-06
5.48328e-06
5.32451e-06
5.64933e-06
5.58574e-06
5.4469e-06
5.51814e-06
5.70634e-06
5.94245e-06
5.96605e-06
6.0316e-06
6.31144e-06
6.22485e-06
6.04817e-06
6.09729e-06
6.27627e-06
6.25048e-06
6.2174e-06
6.1427e-06
5.40695e-06
5.50438e-06
5.46508e-06
5.50814e-06
5.42333e-06
5.23312e-06
5.2012e-06
5.18305e-06
5.11363e-06
4.82654e-06
4.56057e-06
4.32477e-06
4.0011e-06
3.61406e-06
3.35073e-06
3.07009e-06
2.98068e-06
2.85758e-06
2.62778e-06
2.37135e-06
4.26159e-06
3.83805e-06
3.74318e-06
3.51288e-06
3.23653e-06
2.98937e-06
2.46491e-06
2.02205e-06
1.57686e-06
1.12481e-06
7.57889e-07
4.21937e-07
2.89966e-07
1.60893e-07
9.62383e-08
6.4023e-08
4.0632e-08
2.91891e-08
2.19312e-08
1.89162e-08
2.0041e-06
1.8606e-06
1.90843e-06
1.86456e-06
2.00795e-06
2.25621e-06
2.6027e-06
3.3922e-06
4.79172e-06
7.36427e-06
1.25845e-05
2.14823e-05
3.57569e-05
5.57603e-05
8.15665e-05
0.000110686
0.000142664
0.000178932
0.000210051
0.000298268
0.000293676
0.000310388
0.000329251
0.000351688
0.000379165
0.000412275
0.000451304
0.000497945
0.00055232
0.000615079
0.000686291
0.000765922
0.00085161
0.0009444
0.00104267
0.00114869
0.00126444
0.00139752
0.00151896
0.00179098
0.00158234
0.00160985
0.00164144
0.0016773
0.00171897
0.00176467
0.0018176
0.0018768
0.00194419
0.00201694
0.00209504
0.00218046
0.00226999
0.00236401
0.00246285
0.00256562
0.00267383
0.00279226
0.0028991
0.00310069
0.00245503
0.0024691
0.0024833
0.00250061
0.00252079
0.00254325
0.00256822
0.00259662
0.00262793
0.00266472
0.00270472
0.00274956
0.00280133
0.00285801
0.00291973
0.00298759
0.00306027
0.00313589
0.00320681
0.00332301
0.00243679
0.00244249
0.00244854
0.00245406
0.00246167
0.00246929
0.0024781
0.00248841
0.0025016
0.0025165
0.00253423
0.00255715
0.0025841
0.0026145
0.0026506
0.00268793
0.0027269
0.0027649
0.00279841
0.00284635
0.00186789
0.00186941
0.0018701
0.0018709
0.00187046
0.00187199
0.00187128
0.00187132
0.00187188
0.00187152
0.00187155
0.0018718
0.00187265
0.00187352
0.00187375
0.00187509
0.00187684
0.00187594
0.00187892
0.00187942
0.00161038
0.00160495
0.00159876
0.00159098
0.00158233
0.00157239
0.00155954
0.0015456
0.0015278
0.0015101
0.00149086
0.0014718
0.00145405
0.00143799
0.00142588
0.00141678
0.00141157
0.00140933
0.0014088
0.00140934
0.00076962
0.00131701
0.00214157
0.00300799
0.0037523
0.00427469
0.004574
0.0047231
0.0048191
0.00492734
0.00507055
0.00523902
0.00540846
0.00555729
0.00567275
0.00575124
0.0058014
0.00581606
0.00586456
0.00561768
0.000933805
0.00120653
0.00171388
0.00240182
0.00307605
0.00358688
0.00390777
0.00409193
0.00422601
0.0043726
0.0045616
0.00478465
0.00501783
0.0052344
0.00541483
0.00555365
0.00565603
0.00571731
0.0058021
0.00557748
0.00139428
0.00150869
0.00170565
0.00204358
0.00248482
0.00289947
0.00320132
0.0033963
0.00353973
0.00369291
0.00389993
0.00415996
0.00445612
0.00475079
0.00501558
0.00523388
0.00540826
0.00553331
0.00566829
0.00552014
0.00182162
0.00188285
0.00197256
0.00210752
0.00229744
0.00250966
0.00269339
0.00281692
0.0028989
0.00298531
0.00312853
0.00336111
0.00367904
0.00404145
0.00439966
0.00472067
0.00499161
0.00520546
0.00540937
0.00540068
0.00215366
0.00218549
0.00222879
0.00228681
0.00235665
0.00242436
0.00246787
0.00246774
0.00243392
0.00239641
0.00239847
0.00249291
0.00271596
0.00306255
0.00348252
0.00391226
0.00430498
0.00464082
0.00493767
0.00514019
0.00229205
0.00230401
0.00231798
0.00232972
0.00233251
0.00231278
0.00225552
0.0021546
0.00202515
0.00189106
0.00178256
0.00172731
0.00176383
0.00193288
0.00225683
0.00270887
0.00321005
0.00369399
0.00411653
0.00457129
0.00208987
0.00208553
0.00207557
0.00204942
0.00199856
0.00191121
0.0017825
0.00162064
0.00144405
0.00127629
0.00113594
0.00103403
0.000976309
0.000976566
0.00106077
0.00127732
0.00165511
0.00218612
0.00273488
0.00350156
0.00134109
0.00133009
0.00130665
0.00126362
0.00119505
0.00109452
0.000966403
0.000821969
0.000679959
0.000555615
0.000455608
0.000381857
0.000330506
0.000301121
0.000291314
0.000312234
0.00037697
0.000557679
0.000794632
0.00162154
0.000252744
0.000250046
0.000243448
0.000229795
0.000207378
0.000173886
0.000130799
8.24302e-05
3.93364e-05
1.37388e-05
4.12108e-06
1.2203e-06
4.28996e-07
1.96888e-07
1.25662e-07
1.16384e-07
9.2901e-08
5.30718e-07
1.4785e-07
0.000118325
3.48975e-06
3.08209e-06
2.87486e-06
2.43881e-06
2.01837e-06
1.70099e-06
1.26232e-06
1.04371e-06
9.30895e-07
9.46739e-07
1.16054e-06
1.29551e-06
1.51631e-06
1.64497e-06
1.83656e-06
1.87669e-06
2.02265e-06
2.10864e-06
2.30658e-06
2.47337e-06
7.7033e-07
2.83782e-08
4.30434e-07
1.21797e-06
1.41399e-06
1.4613e-06
1.1508e-06
5.5529e-07
2.76502e-07
2.23649e-07
2.00354e-07
4.36703e-07
8.28805e-07
1.18565e-06
1.52136e-06
1.94834e-06
2.11244e-06
2.37979e-06
2.46605e-06
2.66858e-06
0.000139454
1.57102e-05
6.97597e-05
7.71835e-05
7.30101e-05
8.46908e-05
9.09673e-05
9.20565e-05
8.54172e-05
7.4057e-05
6.40274e-05
6.41922e-05
9.36982e-05
0.000115499
0.000131661
0.000141711
0.000148889
0.00015586
0.000159511
0.000165381
0.000206284
0.000131819
0.000181964
0.000218337
0.00026346
0.000299366
0.000317306
0.000317972
0.000304409
0.00028142
0.000258691
0.000241625
0.000252501
0.000269569
0.000283355
0.000294147
0.000302873
0.00030978
0.00031382
0.000319946
0.000256526
0.000229544
0.000320269
0.000448132
0.000525462
0.000584431
0.000613454
0.000611153
0.000584741
0.00054418
0.000501728
0.000461519
0.000449675
0.000459611
0.000472204
0.000482959
0.000491209
0.000498903
0.000502282
0.000508702
0.000299162
0.000331462
0.000559417
0.000767104
0.000885763
0.000977419
0.00102231
0.0010149
0.000970097
0.000903426
0.000832578
0.000767644
0.00072751
0.000718527
0.000720836
0.00072628
0.000730613
0.000734081
0.000736394
0.000738738
0.000341076
0.000459398
0.000912334
0.00120816
0.00137969
0.00151516
0.0015777
0.00156428
0.00149413
0.00139173
0.00128402
0.00118462
0.00111174
0.00107301
0.00105537
0.00104539
0.00103928
0.00103315
0.00103022
0.00102341
0.000389214
0.000671677
0.00140742
0.00180388
0.00204823
0.00223784
0.00232155
0.00229668
0.00219281
0.00204362
0.00188823
0.00174105
0.00162764
0.00154988
0.00149836
0.0014612
0.00143544
0.00141099
0.0013984
0.00137392
0.000452014
0.000978464
0.00199044
0.00253188
0.00290807
0.00318079
0.00329677
0.00325641
0.00310614
0.00289636
0.0026784
0.00247197
0.00230094
0.00216864
0.00206989
0.00199245
0.00193547
0.00188408
0.00185318
0.00180238
0.000523735
0.00140149
0.00260018
0.00332317
0.00387508
0.00427314
0.00445961
0.00442464
0.00423305
0.00395522
0.00366075
0.0033791
0.00313463
0.00293422
0.00277433
0.00264434
0.00254496
0.00245544
0.00240177
0.00231095
0.000576831
0.00184334
0.00320082
0.00410902
0.00483527
0.00536275
0.00562775
0.00561822
0.00541006
0.00508772
0.00473068
0.00438172
0.00406841
0.00379968
0.00357973
0.0033929
0.00324734
0.00311454
0.00303331
0.00289695
0.000629571
0.00225691
0.00374776
0.00482264
0.00570503
0.00633895
0.00666443
0.00667862
0.00646556
0.00612443
0.00573646
0.00535074
0.00499516
0.00468165
0.00441564
0.00418492
0.00400007
0.00382889
0.00372187
0.0035395
0.000659861
0.00259439
0.00417352
0.00538428
0.00638346
0.00708851
0.00744529
0.00747271
0.00726846
0.00693465
0.00655275
0.00617071
0.00581112
0.00548686
0.00520156
0.00495115
0.00474336
0.00454881
0.00442517
0.00420216
0.000668163
0.00278001
0.00438451
0.00566798
0.00671993
0.00743721
0.0077896
0.00781896
0.00764028
0.0073549
0.00703237
0.00670743
0.0063968
0.00610734
0.00584656
0.00560847
0.00540595
0.00521062
0.0050867
0.00483808
0.000642696
0.00276484
0.00425118
0.0054831
0.00647301
0.00711914
0.00742188
0.00745078
0.00732994
0.00715078
0.00696031
0.00676955
0.00658201
0.00639628
0.0062163
0.00604161
0.00588452
0.00572243
0.0056268
0.00537268
0.00124294
0.00230329
0.00344019
0.0044369
0.00523012
0.00574826
0.00600506
0.00607263
0.00606679
0.00606161
0.0060801
0.00610953
0.00613534
0.00613947
0.00612087
0.00607949
0.00602779
0.00595273
0.00592719
0.0056877
)
;

boundaryField
{
    inlet
    {
        type            fixedValue;
        value           uniform 1.0198e-05;
    }
    outlet
    {
        type            zeroGradient;
    }
    frontAndBack
    {
        type            empty;
    }
    noslipwall
    {
        type            nutUSpaldingWallFunction;
        Cmu             0.09;
        kappa           0.41;
        E               9.8;
        value           nonuniform List<scalar> 
75
(
0.000106513
9.76549e-05
9.49283e-05
9.34134e-05
9.24952e-05
9.18194e-05
9.11471e-05
9.04614e-05
8.9852e-05
8.93758e-05
8.90273e-05
8.87089e-05
8.83317e-05
8.78818e-05
8.73436e-05
8.67055e-05
8.59557e-05
8.50905e-05
8.41185e-05
8.30649e-05
8.19813e-05
8.09274e-05
7.99836e-05
7.9193e-05
7.86117e-05
7.82096e-05
7.80141e-05
7.7922e-05
7.79521e-05
7.80277e-05
3.36488e-05
2.95058e-05
2.8938e-05
2.86278e-05
2.85157e-05
2.85323e-05
2.87559e-05
2.91239e-05
2.94356e-05
3.03768e-05
2.39129e-08
2.62461e-08
3.0215e-07
9.37224e-07
1.23799e-06
1.32592e-06
1.05501e-06
5.78494e-07
1.69274e-07
8.72399e-10
1.29041e-07
3.28866e-07
6.11761e-07
8.80515e-07
1.10949e-06
1.29768e-06
1.44227e-06
1.58527e-06
1.66283e-06
1.81084e-06
0.000426807
5.36069e-06
2.91199e-06
5.33206e-07
2.15364e-06
6.71862e-06
1.15164e-05
1.58442e-05
1.96415e-05
2.31621e-05
2.59501e-05
2.91577e-05
2.90816e-05
3.02516e-05
4.76155e-05
)
;
    }
}


// ************************************************************************* //
