/*--------------------------------*- C++ -*----------------------------------*\
  =========                 |
  \\      /  F ield         | OpenFOAM: The Open Source CFD Toolbox
   \\    /   O peration     | Website:  https://openfoam.org
    \\  /    A nd           | Version:  7
     \\/     M anipulation  |
\*---------------------------------------------------------------------------*/
FoamFile
{
    version     2.0;
    format      ascii;
    class       volScalarField;
    location    "486";
    object      nuTilda1;
}
// * * * * * * * * * * * * * * * * * * * * * * * * * * * * * * * * * * * * * //

dimensions      [0 2 -1 0 0 0 0];

internalField   nonuniform List<scalar> 
900
(
0.000442046
0.000415147
0.000409679
0.000407149
0.000406478
0.000406966
0.000410142
0.000414374
0.000420444
0.000412471
0.00045719
0.000597748
0.000621623
0.00062966
0.000634058
0.00063676
0.000640114
0.000640102
0.000652815
0.000625611
0.000499939
0.000877476
0.000988828
0.00103403
0.0010555
0.00106942
0.00107838
0.00108395
0.00109426
0.00108594
0.000445378
0.0010228
0.00125137
0.00135234
0.00140306
0.00143406
0.00145187
0.00146516
0.00147702
0.00147834
0.000298564
0.000997732
0.00136781
0.00154929
0.00164375
0.00169877
0.00173051
0.00175158
0.00176709
0.00177462
8.57865e-05
0.000752196
0.00126037
0.00154593
0.00170134
0.00179065
0.00184158
0.0018724
0.00189035
0.00190039
3.4463e-07
0.000320592
0.000834975
0.00122661
0.00146224
0.0015977
0.00167327
0.00171444
0.00173284
0.00173983
3.61343e-05
4.44193e-05
0.000218913
0.0004915
0.000740706
0.000919738
0.00102975
0.00108978
0.00111455
0.00112105
4.46632e-05
3.86782e-05
3.90484e-05
6.39729e-05
0.000107422
0.000151945
0.0001865
0.000208969
0.000219811
0.000224226
4.49139e-05
4.37868e-05
4.21244e-05
4.07107e-05
3.9904e-05
4.00227e-05
4.03478e-05
4.05113e-05
3.98795e-05
3.93107e-05
4.45369e-05
4.3617e-05
4.34305e-05
4.35917e-05
4.33668e-05
4.35859e-05
4.35291e-05
4.32264e-05
4.33263e-05
4.3622e-05
4.43707e-05
4.38492e-05
4.36429e-05
4.33933e-05
4.3235e-05
4.35854e-05
4.35504e-05
4.35961e-05
4.35451e-05
4.3621e-05
4.42675e-05
4.3855e-05
4.36845e-05
4.36533e-05
4.36297e-05
4.29387e-05
4.26865e-05
4.20606e-05
4.16807e-05
4.09113e-05
4.4971e-05
4.3651e-05
4.18761e-05
4.01121e-05
3.84013e-05
3.72939e-05
3.60323e-05
3.48091e-05
3.39455e-05
3.34873e-05
4.33886e-05
3.65847e-05
4.19449e-05
6.42642e-05
9.77078e-05
0.000133567
0.000168305
0.000198554
0.000223369
0.000242009
2.55926e-05
0.000109182
0.000343808
0.000611215
0.000833763
0.000998056
0.00111559
0.00119743
0.00125414
0.00129236
0.000104547
0.000706067
0.00123694
0.00156528
0.00175458
0.0018666
0.00193674
0.00198185
0.00201177
0.00203115
0.000557706
0.00132756
0.00165237
0.00180901
0.00189848
0.00195175
0.00198458
0.0020046
0.00201711
0.00202533
0.00102277
0.00141888
0.00147745
0.00150727
0.00152732
0.00154011
0.00154745
0.00155137
0.00155421
0.00155527
0.00150279
0.00146847
0.00141434
0.00139331
0.00138131
0.00137309
0.00136479
0.00135706
0.00134943
0.00134359
4.33239e-05
4.34967e-05
4.33696e-05
4.36368e-05
4.33168e-05
4.35506e-05
4.3955e-05
4.41687e-05
4.42982e-05
4.43987e-05
4.47431e-05
4.49843e-05
4.49034e-05
4.51887e-05
4.5525e-05
4.5546e-05
4.53851e-05
4.54448e-05
4.55075e-05
4.56096e-05
4.36333e-05
4.34927e-05
4.35171e-05
4.34179e-05
4.34522e-05
4.35749e-05
4.34087e-05
4.31e-05
4.26872e-05
4.23604e-05
4.17842e-05
4.09645e-05
4.0141e-05
3.93926e-05
3.8491e-05
3.77603e-05
3.68184e-05
3.60863e-05
3.58357e-05
3.50455e-05
4.05355e-05
4.05231e-05
3.98037e-05
3.90686e-05
3.81108e-05
3.67121e-05
3.54275e-05
3.35247e-05
3.11996e-05
2.86425e-05
2.58007e-05
2.33459e-05
2.01254e-05
1.78087e-05
1.56552e-05
1.38236e-05
1.25759e-05
1.17421e-05
1.10759e-05
1.10948e-05
3.33019e-05
3.34565e-05
3.32275e-05
3.34774e-05
3.36322e-05
3.42175e-05
3.56833e-05
3.79562e-05
4.17543e-05
4.74757e-05
5.50519e-05
6.50954e-05
7.73617e-05
9.16498e-05
0.000107556
0.000125479
0.000145377
0.000170959
0.000192746
0.000258791
0.000255569
0.000267937
0.000283224
0.000301572
0.000323315
0.000349384
0.000380984
0.000418607
0.00046327
0.000515177
0.000574151
0.000639329
0.000710905
0.000787419
0.000870002
0.000958827
0.00105423
0.00116522
0.00126602
0.001492
0.00131856
0.00134159
0.00136772
0.00139759
0.00143123
0.00147038
0.00151424
0.00156389
0.00161865
0.0016797
0.00174636
0.00181663
0.00189123
0.00196934
0.00205105
0.00213721
0.00222756
0.00232523
0.00241409
0.00258186
0.0020444
0.00205557
0.002069
0.00208352
0.0020996
0.00211793
0.00213884
0.00216232
0.00218913
0.00221854
0.0022523
0.00229022
0.00233203
0.00237903
0.0024316
0.00248798
0.00254845
0.00261227
0.0026698
0.00276782
0.00203027
0.00203427
0.00203883
0.00204448
0.00205006
0.00205679
0.00206441
0.00207317
0.00208305
0.00209547
0.00211092
0.00212915
0.00215149
0.00217798
0.00220708
0.00223835
0.00227121
0.00230198
0.00233092
0.00237182
0.00155659
0.0015567
0.0015572
0.00155757
0.00155848
0.00155827
0.00155901
0.0015592
0.00155899
0.00155916
0.00155923
0.00155939
0.00155966
0.00156009
0.0015614
0.00156162
0.00156285
0.00156298
0.00156453
0.00156565
0.001339
0.00133496
0.00133001
0.0013243
0.0013171
0.00130825
0.00129824
0.00128593
0.00127278
0.0012572
0.00124103
0.00122475
0.00120966
0.00119687
0.00118675
0.0011794
0.00117524
0.00117226
0.00117217
0.00117255
0.000642647
0.00109847
0.00178511
0.00250661
0.00312523
0.0035595
0.0038103
0.00393445
0.00401411
0.00410355
0.00422297
0.00436286
0.00450399
0.00462785
0.00472432
0.0047897
0.00483255
0.0048445
0.00488429
0.00467819
0.000779314
0.00100572
0.00142748
0.00200015
0.00256216
0.0029878
0.00325492
0.0034086
0.00351997
0.00364235
0.0037991
0.00398528
0.00417952
0.00435919
0.00451014
0.00462512
0.00471153
0.0047615
0.00483237
0.00464552
0.00116124
0.0012563
0.00142115
0.00170293
0.00207032
0.00241505
0.00266708
0.0028285
0.0029482
0.00307624
0.00324586
0.00346558
0.00371225
0.00395754
0.00417698
0.00435888
0.00450463
0.00460834
0.00472105
0.00459718
0.00151773
0.00156868
0.00164225
0.00175564
0.00191376
0.00209145
0.00224343
0.00234705
0.00241526
0.00248623
0.00260507
0.00279975
0.00306469
0.00336679
0.0036649
0.00393158
0.00415759
0.00433606
0.00450552
0.00449789
0.00179414
0.00182013
0.00185641
0.00190472
0.00196306
0.00201978
0.00205494
0.00205625
0.00202795
0.00199542
0.00199826
0.00207681
0.00226186
0.00255132
0.00290113
0.00325849
0.00358571
0.0038655
0.00411319
0.00428128
0.00190934
0.00191935
0.00193108
0.00194143
0.00194355
0.0019265
0.00187833
0.0017954
0.00168716
0.00157549
0.00148433
0.00143969
0.00146985
0.00161037
0.00187997
0.00225655
0.0026736
0.00307625
0.0034289
0.00380806
0.00174095
0.00173826
0.00172893
0.00170758
0.00166491
0.00159256
0.00148595
0.00135042
0.00120341
0.00106427
0.000947842
0.00086247
0.000814558
0.000814238
0.0008848
0.00106479
0.00137858
0.00182134
0.00227822
0.00291631
0.00111841
0.00110873
0.00108966
0.00105491
0.000996992
0.000913219
0.000805873
0.000686376
0.00056925
0.00046661
0.000385097
0.000324949
0.000284661
0.000260966
0.000253849
0.000269333
0.000321074
0.000468004
0.00066409
0.00135061
0.000224534
0.000222451
0.000217079
0.00020714
0.000190558
0.000167103
0.000138086
0.000107461
7.96474e-05
5.7245e-05
4.06829e-05
2.97424e-05
2.28804e-05
1.88573e-05
1.65573e-05
1.58898e-05
1.58622e-05
2.339e-05
1.688e-05
0.000129835
3.8767e-05
3.8409e-05
3.72494e-05
3.60236e-05
3.42492e-05
3.18922e-05
3.01571e-05
2.86154e-05
2.79829e-05
2.81097e-05
2.84104e-05
2.96066e-05
3.06752e-05
3.19391e-05
3.27913e-05
3.37772e-05
3.42447e-05
3.46232e-05
3.44986e-05
3.50509e-05
2.63288e-05
1.16564e-05
2.22769e-05
2.82172e-05
3.03906e-05
3.0806e-05
2.86442e-05
2.45212e-05
2.09729e-05
1.91432e-05
1.88963e-05
2.24397e-05
2.61327e-05
2.89319e-05
3.09652e-05
3.2197e-05
3.35611e-05
3.457e-05
3.52901e-05
3.64995e-05
0.000143345
5.75804e-05
9.79247e-05
0.00010292
9.99096e-05
0.0001078
0.000113641
0.000113313
0.000108789
0.000102417
9.53203e-05
9.45362e-05
0.00011367
0.000126412
0.000135892
0.00014349
0.00014887
0.00015338
0.000155903
0.000160218
0.000188668
0.000138287
0.000171388
0.000197873
0.000231907
0.000258793
0.00027341
0.000273395
0.000262461
0.000245564
0.000226784
0.000214898
0.000223328
0.000235931
0.000246808
0.000255728
0.00026194
0.000267822
0.000271083
0.000276409
0.000226011
0.00020496
0.000274697
0.000377709
0.000441601
0.00048962
0.000513601
0.000511682
0.000489884
0.000456493
0.000420915
0.000389461
0.000379077
0.000387166
0.000397363
0.000406349
0.00041313
0.000418829
0.000422698
0.000427684
0.000259473
0.000284886
0.000469165
0.000640026
0.000738942
0.000815346
0.000851485
0.000846622
0.000809478
0.000753754
0.000695266
0.000640796
0.000607853
0.000600694
0.000603009
0.00060684
0.000610315
0.000613362
0.000615309
0.000617487
0.000291971
0.000387412
0.000761552
0.00100542
0.00114956
0.0012622
0.00131432
0.00130323
0.00124493
0.00115946
0.00106996
0.000986183
0.000926382
0.000895405
0.000880087
0.000871501
0.000866167
0.000861443
0.000859009
0.000853559
0.000331198
0.000561951
0.00117341
0.00150132
0.0017054
0.0018638
0.0019342
0.00191355
0.00182633
0.00170168
0.00157173
0.00145093
0.00135569
0.00129084
0.00124832
0.00121763
0.00119578
0.00117649
0.00116514
0.00114559
0.000381364
0.000816635
0.0016588
0.00210796
0.00242253
0.00264884
0.00274524
0.00271125
0.00258725
0.00241225
0.00223034
0.00205868
0.00191636
0.00180631
0.0017243
0.00166005
0.00161238
0.00156902
0.00154428
0.00150117
0.000439647
0.00116816
0.00216609
0.00276744
0.00322719
0.00355861
0.00371311
0.00368406
0.00352571
0.003295
0.00304933
0.00281437
0.00261102
0.00244307
0.00231104
0.00220266
0.00212028
0.00204517
0.00200016
0.00192583
0.000484017
0.0015364
0.00266618
0.00342192
0.00402807
0.00446702
0.0046865
0.00467863
0.00450553
0.004237
0.00393972
0.00364957
0.00338898
0.00316522
0.00298048
0.00282637
0.00270517
0.0025947
0.00252637
0.00241333
0.000527503
0.00188042
0.00312147
0.00401794
0.00475215
0.00528034
0.00555029
0.00556118
0.00538535
0.00510042
0.00477716
0.00445629
0.00416093
0.00389923
0.00367658
0.0034858
0.00333146
0.00318967
0.00309985
0.00294737
0.00055261
0.00216207
0.00347611
0.00448396
0.00531721
0.00590299
0.00620133
0.00622362
0.00605337
0.00577601
0.00545849
0.00513921
0.00484035
0.00456885
0.00433261
0.00412369
0.00395093
0.00378901
0.00368548
0.00350037
0.000557872
0.00231531
0.00365112
0.00472026
0.0055966
0.00619375
0.00648723
0.00651198
0.00636296
0.00612574
0.00585734
0.00558665
0.00532803
0.00508702
0.0048692
0.0046713
0.00450208
0.00433913
0.00423639
0.0040297
0.000536971
0.00230181
0.0035402
0.00456658
0.00538951
0.00592915
0.00618123
0.00620525
0.0061042
0.00595497
0.00579603
0.00563816
0.00548182
0.00532703
0.00517753
0.00503163
0.00490038
0.00476606
0.00468631
0.00447462
0.00103544
0.00191665
0.00286563
0.00369615
0.00435549
0.00478961
0.00500169
0.00505814
0.00505314
0.00504805
0.00506302
0.00508918
0.00510897
0.0051132
0.00509801
0.00506332
0.00502011
0.0049577
0.00493652
0.00473719
)
;

boundaryField
{
    inlet
    {
        type            fixedValue;
        value           uniform 4.65e-05;
    }
    outlet
    {
        type            zeroGradient;
    }
    frontAndBack
    {
        type            empty;
    }
    noslipwall
    {
        type            zeroGradient;
    }
}


// ************************************************************************* //
