/*--------------------------------*- C++ -*----------------------------------*\
  =========                 |
  \\      /  F ield         | OpenFOAM: The Open Source CFD Toolbox
   \\    /   O peration     | Website:  https://openfoam.org
    \\  /    A nd           | Version:  7
     \\/     M anipulation  |
\*---------------------------------------------------------------------------*/
FoamFile
{
    version     2.0;
    format      ascii;
    class       volScalarField;
    location    "486";
    object      nuTilda2;
}
// * * * * * * * * * * * * * * * * * * * * * * * * * * * * * * * * * * * * * //

dimensions      [0 2 -1 0 0 0 0];

internalField   nonuniform List<scalar> 
900
(
0.000473042
0.000444629
0.000438857
0.000436091
0.000435208
0.00043564
0.000438782
0.000442565
0.000449489
0.000440872
0.000487771
0.000638104
0.000663899
0.000672767
0.000676971
0.000679805
0.00068316
0.000683199
0.000696005
0.000667424
0.000533352
0.000936529
0.00105546
0.00110318
0.00112674
0.00114128
0.00115038
0.00115676
0.00116744
0.00115823
0.000475571
0.00109171
0.00133546
0.00144298
0.00149727
0.00152993
0.00154887
0.00156281
0.00157579
0.00157664
0.000318869
0.00106447
0.00145936
0.00165296
0.00175348
0.00181231
0.00184624
0.0018687
0.0018852
0.00189289
9.07034e-05
0.000803053
0.00134465
0.00164937
0.0018152
0.00191043
0.00196491
0.00199743
0.0020168
0.00202711
3.45136e-05
0.000342115
0.000890873
0.00130873
0.00156021
0.00170497
0.00178533
0.00182879
0.00184884
0.0018563
3.74339e-05
4.72476e-05
0.000233005
0.000524352
0.000790101
0.000981085
0.00109861
0.00116224
0.00118897
0.00119577
4.67787e-05
4.11876e-05
4.17552e-05
6.78222e-05
0.000114625
0.000161852
0.00019894
0.000222676
0.0002345
0.000238781
4.65797e-05
4.64572e-05
4.51703e-05
4.33332e-05
4.23027e-05
4.26515e-05
4.29938e-05
4.29384e-05
4.24898e-05
4.18656e-05
4.64525e-05
4.63944e-05
4.63581e-05
4.62945e-05
4.62288e-05
4.62079e-05
4.6204e-05
4.62092e-05
4.62217e-05
4.62359e-05
4.64771e-05
4.644e-05
4.64185e-05
4.64065e-05
4.64009e-05
4.64018e-05
4.64076e-05
4.64128e-05
4.64133e-05
4.64091e-05
4.64674e-05
4.6437e-05
4.63984e-05
4.63175e-05
4.61832e-05
4.5927e-05
4.54825e-05
4.48902e-05
4.42663e-05
4.37107e-05
4.664e-05
4.6102e-05
4.46062e-05
4.28223e-05
4.12317e-05
3.97043e-05
3.82376e-05
3.70444e-05
3.62388e-05
3.57692e-05
4.4938e-05
3.85237e-05
4.43654e-05
6.86754e-05
0.000104017
0.000142461
0.000179441
0.000211923
0.000238154
0.000257926
2.64041e-05
0.000116077
0.000366773
0.000651815
0.000889214
0.00106474
0.00118971
0.00127728
0.00133765
0.00137856
0.00011037
0.000753367
0.00132005
0.00167091
0.00187245
0.00199171
0.00206615
0.00211439
0.00214612
0.00216701
0.000595557
0.00141693
0.00176341
0.00193064
0.00202544
0.0020825
0.00211727
0.00213858
0.00215179
0.00216011
0.00109202
0.00151437
0.00157701
0.00160825
0.0016298
0.00164333
0.00165122
0.00165564
0.00165808
0.00165943
0.00160478
0.00156843
0.00151103
0.00148846
0.00147594
0.0014669
0.001458
0.00144891
0.00144074
0.00143423
4.62497e-05
4.62664e-05
4.62922e-05
4.63329e-05
4.6398e-05
4.65003e-05
4.66516e-05
4.68554e-05
4.7101e-05
4.73627e-05
4.76118e-05
4.78258e-05
4.7994e-05
4.81164e-05
4.82001e-05
4.82535e-05
4.8288e-05
4.83075e-05
4.83233e-05
4.83322e-05
4.64023e-05
4.63924e-05
4.6375e-05
4.63457e-05
4.62956e-05
4.62111e-05
4.60718e-05
4.58496e-05
4.55119e-05
4.50305e-05
4.43925e-05
4.36121e-05
4.27277e-05
4.18026e-05
4.0893e-05
4.00583e-05
3.93143e-05
3.86631e-05
3.81786e-05
3.72733e-05
4.32618e-05
4.28071e-05
4.22224e-05
4.147e-05
4.05006e-05
3.92547e-05
3.76693e-05
3.56938e-05
3.33114e-05
3.05656e-05
2.75706e-05
2.45028e-05
2.15468e-05
1.8882e-05
1.65975e-05
1.47774e-05
1.33468e-05
1.23965e-05
1.16369e-05
1.14953e-05
3.55143e-05
3.53638e-05
3.5297e-05
3.53849e-05
3.57414e-05
3.65415e-05
3.80411e-05
4.05856e-05
4.45933e-05
5.04933e-05
5.86395e-05
6.91915e-05
8.21376e-05
9.72516e-05
0.00011444
0.000133688
0.000155188
0.00018204
0.00020537
0.000275926
0.000272354
0.000285798
0.00030191
0.000321244
0.000344511
0.000372545
0.000406264
0.000446561
0.000494168
0.000549439
0.000612281
0.0006821
0.00075824
0.000840063
0.000927782
0.00102226
0.00112437
0.00124267
0.0013503
0.00159153
0.00140643
0.00143094
0.00145888
0.00149074
0.00152704
0.00156836
0.00161523
0.00166805
0.001727
0.00179193
0.00186239
0.00193768
0.00201725
0.00210064
0.00218804
0.00227971
0.002376
0.00248056
0.0025754
0.00275441
0.002181
0.00219313
0.00220682
0.00222226
0.00223971
0.00225941
0.00228167
0.00230678
0.00233509
0.00236695
0.00240278
0.002443
0.00248812
0.00253834
0.00259395
0.00265414
0.00271867
0.00278642
0.00284839
0.00295246
0.0021655
0.00217007
0.00217512
0.00218073
0.00218698
0.00219401
0.00220202
0.0022113
0.00222228
0.00223553
0.00225173
0.00227152
0.00229539
0.00232318
0.00235461
0.00238789
0.00242278
0.00245595
0.00248641
0.00252965
0.00166021
0.00166079
0.00166135
0.00166187
0.00166233
0.0016627
0.00166296
0.0016631
0.00166314
0.00166313
0.00166319
0.00166338
0.00166384
0.00166442
0.00166537
0.00166596
0.00166736
0.00166715
0.00166918
0.00167009
0.00142939
0.00142488
0.00141952
0.00141313
0.00140545
0.00139624
0.00138528
0.00137244
0.00135775
0.00134147
0.00132428
0.00130708
0.00129111
0.00127723
0.00126646
0.00125853
0.00125402
0.00125129
0.00125105
0.00125149
0.000685538
0.00117137
0.00190372
0.00267336
0.00333376
0.00379732
0.00406424
0.00419669
0.00428178
0.00437747
0.00450481
0.00465419
0.00480474
0.0049369
0.00503968
0.00510942
0.0051547
0.00516755
0.00521024
0.00499058
0.000831141
0.00107276
0.00152284
0.00213377
0.00273307
0.00318702
0.00347201
0.00363583
0.00375475
0.00388518
0.00405265
0.00425109
0.00445827
0.00465021
0.00481096
0.00493387
0.00502559
0.00507931
0.00515481
0.00495541
0.00123893
0.0013404
0.00151589
0.00181629
0.0022082
0.00257617
0.00284475
0.00301732
0.00314491
0.00328131
0.00346336
0.00369648
0.0039596
0.00422131
0.00445583
0.00464983
0.0048051
0.0049159
0.00503602
0.00490407
0.00161889
0.00167326
0.00175218
0.00187273
0.00204141
0.00223057
0.0023931
0.00250333
0.00257611
0.00265222
0.00277916
0.00298644
0.00326899
0.00359114
0.00390923
0.00419397
0.00443491
0.00462515
0.00480606
0.00479808
0.00191376
0.00194169
0.0019803
0.00203184
0.002094
0.00215437
0.0021923
0.00219313
0.002163
0.00212882
0.0021314
0.00221523
0.0024129
0.00272134
0.00309447
0.00347589
0.00382489
0.00412331
0.00438735
0.00456688
0.00203667
0.00204733
0.0020598
0.00207061
0.00207295
0.00205501
0.00200383
0.00191492
0.00179964
0.00168053
0.00158362
0.00153546
0.00156773
0.00171771
0.00200536
0.002407
0.00285201
0.00328168
0.00365756
0.00406185
0.00185706
0.00185382
0.00184428
0.00182133
0.00177595
0.00169862
0.00158468
0.00144042
0.00128362
0.00113501
0.00101069
0.000919886
0.000868759
0.000868631
0.000943664
0.0011357
0.00147067
0.00194271
0.00243011
0.00311094
0.00119267
0.00118256
0.00116204
0.00112455
0.00106313
0.000973835
0.000859677
0.000732051
0.000606919
0.000497479
0.000410407
0.000346463
0.000303263
0.000278262
0.000270477
0.000287306
0.000342314
0.000499086
0.000708127
0.00144085
0.000239157
0.000236958
0.0002314
0.000220724
0.000203141
0.000178075
0.000147232
0.000114593
8.47228e-05
6.06744e-05
4.32156e-05
3.15415e-05
2.42296e-05
1.99464e-05
1.76255e-05
1.70545e-05
1.66814e-05
2.50657e-05
1.8115e-05
0.00013853
4.12418e-05
4.05065e-05
3.94625e-05
3.80282e-05
3.61711e-05
3.40205e-05
3.19204e-05
3.03302e-05
2.95843e-05
2.97161e-05
3.05027e-05
3.16318e-05
3.28358e-05
3.3942e-05
3.48759e-05
3.5607e-05
3.61754e-05
3.6573e-05
3.68083e-05
3.74305e-05
2.79661e-05
1.23073e-05
2.38344e-05
3.05176e-05
3.24253e-05
3.28059e-05
3.06339e-05
2.59299e-05
2.20158e-05
2.03772e-05
2.00048e-05
2.39759e-05
2.80307e-05
3.09144e-05
3.30399e-05
3.46798e-05
3.58704e-05
3.69688e-05
3.75793e-05
3.86794e-05
0.000152991
6.18128e-05
0.000105045
0.000110249
0.000107191
0.000115384
0.000120848
0.0001209
0.000116225
0.000109128
0.000101847
0.000101366
0.000121549
0.000135528
0.000145991
0.000153678
0.000159161
0.000164027
0.000166691
0.000171157
0.000201566
0.00014763
0.000183166
0.000211189
0.000247311
0.000276267
0.000291612
0.00029181
0.000280281
0.000261902
0.000242449
0.000229401
0.000238279
0.000251851
0.000263327
0.000272606
0.000279456
0.000285532
0.000288969
0.00029444
0.00024128
0.000219195
0.000293399
0.000403049
0.000470904
0.0005223
0.000547853
0.000545814
0.000522578
0.000486975
0.000449337
0.00041524
0.000404463
0.000413088
0.00042399
0.000433491
0.000440707
0.000447022
0.000450708
0.000456133
0.000276658
0.000303715
0.000500432
0.000682956
0.000788269
0.000869654
0.000908666
0.000902961
0.000863308
0.000804009
0.000741498
0.000683649
0.000648391
0.000640644
0.000642952
0.000647308
0.000651059
0.000654239
0.000656303
0.000658532
0.000311476
0.000413183
0.000812167
0.0010731
0.00122629
0.00134649
0.00140205
0.00139019
0.00132797
0.0012369
0.00114138
0.00105245
0.000988335
0.000954806
0.000938727
0.000929684
0.000924097
0.000918909
0.000916314
0.000910416
0.000352991
0.000599314
0.00125142
0.00160204
0.00181949
0.00198825
0.00206307
0.00204102
0.00194826
0.00181547
0.00167707
0.00154753
0.00144626
0.00137714
0.00133163
0.00129881
0.00127566
0.00125466
0.0012429
0.00122172
0.000406749
0.00087086
0.00176917
0.00224898
0.00258402
0.00282575
0.00292866
0.00289255
0.00275983
0.00257326
0.00237938
0.00219617
0.00204431
0.00192687
0.0018393
0.00177067
0.00171991
0.00167389
0.0016471
0.00160145
0.000469035
0.00124595
0.00231048
0.00295226
0.00344264
0.00379621
0.00396133
0.00393032
0.00376092
0.00351455
0.00325266
0.00300218
0.00278516
0.00260642
0.00246513
0.00234958
0.00226155
0.00218165
0.00213377
0.00205396
0.000516063
0.00163857
0.00284398
0.0036504
0.00429648
0.00476486
0.00499947
0.00499105
0.00480629
0.00451988
0.00420273
0.00389303
0.00361492
0.0033762
0.00317976
0.00301477
0.00288548
0.00276759
0.00269497
0.00257418
0.000562439
0.00200568
0.00332974
0.00428552
0.00506899
0.00563234
0.00592075
0.00593273
0.00574453
0.00544091
0.00509614
0.0047537
0.00443833
0.0041594
0.00392233
0.00371828
0.0035538
0.00340224
0.0033067
0.00314428
0.000589182
0.00230587
0.00370802
0.00478333
0.00567174
0.00629718
0.00661495
0.00663894
0.0064574
0.00616126
0.00582234
0.00548219
0.00516314
0.0048741
0.00462154
0.00439884
0.00421443
0.00404166
0.00393145
0.00373373
0.000595432
0.00246987
0.00389499
0.00503539
0.00597011
0.0066072
0.00692027
0.00694655
0.00678767
0.00653444
0.00624804
0.00595931
0.00568341
0.00542628
0.00519418
0.00498292
0.00480263
0.00462891
0.00451913
0.0042985
0.000573083
0.00245582
0.00377662
0.00487133
0.00574978
0.00632483
0.00659375
0.00661939
0.00651176
0.00635258
0.00618316
0.00601435
0.00584764
0.00568256
0.00552293
0.00536746
0.00522761
0.00508407
0.00499904
0.00477324
0.00110469
0.00204528
0.0030567
0.00394246
0.00464631
0.00510837
0.00533532
0.00539547
0.00539019
0.00538507
0.0054012
0.00542845
0.00545024
0.00545444
0.00543812
0.00540121
0.00535517
0.00528856
0.00526593
0.00505324
)
;

boundaryField
{
    inlet
    {
        type            fixedValue;
        value           uniform 4.65e-05;
    }
    outlet
    {
        type            zeroGradient;
    }
    frontAndBack
    {
        type            empty;
    }
    noslipwall
    {
        type            zeroGradient;
    }
}


// ************************************************************************* //
