/*--------------------------------*- C++ -*----------------------------------*\
  =========                 |
  \\      /  F ield         | OpenFOAM: The Open Source CFD Toolbox
   \\    /   O peration     | Website:  https://openfoam.org
    \\  /    A nd           | Version:  7
     \\/     M anipulation  |
\*---------------------------------------------------------------------------*/
FoamFile
{
    version     2.0;
    format      ascii;
    class       volScalarField;
    location    "486";
    object      nuTilda4;
}
// * * * * * * * * * * * * * * * * * * * * * * * * * * * * * * * * * * * * * //

dimensions      [0 2 -1 0 0 0 0];

internalField   nonuniform List<scalar> 
900
(
0.000535267
0.000503815
0.000497434
0.000494194
0.000492883
0.000493205
0.00049628
0.000499159
0.000507799
0.000497888
0.000549163
0.00071912
0.000748769
0.000759306
0.000763122
0.000766221
0.000769578
0.000769717
0.000782712
0.000751366
0.00060043
0.00105508
0.00118924
0.001242
0.00126976
0.00128555
0.00129493
0.00130292
0.00131435
0.00130335
0.000536183
0.00123005
0.00150428
0.00162493
0.0016864
0.00172239
0.00174361
0.00175884
0.00177408
0.00177398
0.000359632
0.00119845
0.00164315
0.00186107
0.00197378
0.00204025
0.00207859
0.00210381
0.00212232
0.00213034
0.000100574
0.000905151
0.00151382
0.00185703
0.00204379
0.00215089
0.00221251
0.00224843
0.00227065
0.0022815
3.79466e-05
0.000385323
0.00100309
0.00147359
0.00175689
0.00192033
0.00201029
0.00205834
0.00208172
0.00209011
4.00427e-05
5.29255e-05
0.000261295
0.000590304
0.000889264
0.00110424
0.00123685
0.00130773
0.00133839
0.00134578
5.10256e-05
4.62253e-05
4.71894e-05
7.55497e-05
0.000129086
0.000181742
0.000223912
0.000250192
0.000263989
0.000268001
4.99237e-05
5.18182e-05
5.12851e-05
4.85979e-05
4.71183e-05
4.7929e-05
4.83059e-05
4.78109e-05
4.77301e-05
4.69948e-05
5.0298e-05
5.197e-05
5.22354e-05
5.17206e-05
5.19743e-05
5.14716e-05
5.15738e-05
5.21974e-05
5.20344e-05
5.14836e-05
5.07058e-05
5.16411e-05
5.19906e-05
5.24557e-05
5.27566e-05
5.20559e-05
5.21436e-05
5.20674e-05
5.21713e-05
5.20061e-05
5.08839e-05
5.16205e-05
5.18469e-05
5.16659e-05
5.13095e-05
5.19264e-05
5.10957e-05
5.05709e-05
4.94571e-05
4.93307e-05
4.99906e-05
5.10225e-05
5.00868e-05
4.82633e-05
4.69139e-05
4.45432e-05
4.26648e-05
4.1532e-05
4.08428e-05
4.03503e-05
4.80483e-05
4.24162e-05
4.92246e-05
7.7531e-05
0.000116683
0.000160316
0.000201798
0.000238762
0.000267837
0.000289881
2.80333e-05
0.00012992
0.000412876
0.000733322
0.00100053
0.00119862
0.0013385
0.00143757
0.0015053
0.00155162
0.00012206
0.000848324
0.0014869
0.00188297
0.00210907
0.00224286
0.00232594
0.00238047
0.00241582
0.00243974
0.000671544
0.00159634
0.00198635
0.00217484
0.00228033
0.00234499
0.00238364
0.00240754
0.00242218
0.00243068
0.00123105
0.00170606
0.00177691
0.00181098
0.00183553
0.00185054
0.00185955
0.00186497
0.0018666
0.00186853
0.00180954
0.00176911
0.00170514
0.00167946
0.00166591
0.00165523
0.00164513
0.00163331
0.00162405
0.0016162
5.21234e-05
5.18266e-05
5.21593e-05
5.17454e-05
5.25837e-05
5.24222e-05
5.20652e-05
5.22491e-05
5.27275e-05
5.33132e-05
5.33709e-05
5.35303e-05
5.41984e-05
5.39938e-05
5.35704e-05
5.3689e-05
5.41155e-05
5.40546e-05
5.39761e-05
5.37979e-05
5.19613e-05
5.22137e-05
5.21123e-05
5.22234e-05
5.2004e-05
5.15034e-05
5.14182e-05
5.13696e-05
5.11827e-05
5.0391e-05
4.96287e-05
4.89272e-05
4.79207e-05
4.6641e-05
4.57153e-05
4.46715e-05
4.43251e-05
4.3836e-05
4.2882e-05
4.17456e-05
4.87349e-05
4.73924e-05
4.7078e-05
4.6291e-05
4.52982e-05
4.4359e-05
4.21698e-05
4.00484e-05
3.75507e-05
3.44261e-05
3.11236e-05
2.68253e-05
2.44004e-05
2.10368e-05
1.84891e-05
1.66922e-05
1.48945e-05
1.37104e-05
1.27633e-05
1.22995e-05
3.99557e-05
3.91928e-05
3.94516e-05
3.92144e-05
3.99757e-05
4.1207e-05
4.27744e-05
4.58643e-05
5.02928e-05
5.65513e-05
6.58418e-05
7.74146e-05
9.17252e-05
0.000108497
0.000128262
0.000150169
0.000174884
0.000204285
0.000230713
0.000310324
0.00030605
0.000321654
0.000339422
0.000360738
0.000387063
0.000419043
0.000457015
0.00050268
0.000556197
0.000618223
0.000688827
0.000767964
0.000853266
0.000945749
0.00104378
0.0011496
0.0012652
0.00139814
0.00151949
0.00179136
0.00158282
0.00161032
0.00164189
0.00167773
0.00171938
0.00176506
0.00181796
0.00187714
0.00194451
0.00201723
0.00209531
0.00218071
0.00227023
0.00236422
0.00246305
0.00256581
0.00267399
0.00279241
0.00289925
0.00310081
0.00245523
0.0024693
0.00248349
0.00250081
0.00252098
0.00254343
0.0025684
0.0025968
0.00262811
0.00266489
0.00270489
0.00274972
0.00280148
0.00285816
0.00291987
0.00298773
0.00306039
0.00313602
0.00320692
0.00332312
0.00243699
0.00244269
0.00244874
0.00245426
0.00246186
0.00246949
0.00247829
0.0024886
0.00250179
0.00251669
0.00253442
0.00255733
0.00258428
0.00261468
0.00265077
0.00268809
0.00272706
0.00276506
0.00279857
0.0028465
0.00186824
0.00186975
0.00187044
0.00187125
0.0018708
0.00187233
0.00187163
0.00187166
0.00187223
0.00187186
0.00187189
0.00187215
0.00187299
0.00187386
0.00187409
0.00187543
0.00187718
0.00187628
0.00187926
0.00187976
0.00161085
0.00160542
0.00159924
0.00159146
0.00158281
0.00157288
0.00156003
0.00154611
0.00152832
0.00151063
0.00149141
0.00147235
0.00145462
0.00143857
0.00142648
0.00141738
0.00141218
0.00140994
0.0014094
0.00140995
0.000771644
0.00131771
0.00214184
0.00300813
0.00375239
0.00427476
0.00457406
0.00472315
0.00481915
0.00492739
0.0050706
0.00523907
0.0054085
0.00555733
0.00567278
0.00575127
0.00580144
0.0058161
0.0058646
0.00561771
0.000935184
0.00120735
0.00171429
0.00240203
0.00307618
0.00358697
0.00390785
0.00409201
0.00422608
0.00437266
0.00456166
0.0047847
0.00501788
0.00523444
0.00541487
0.00555369
0.00565607
0.00571734
0.00580213
0.00557752
0.0013949
0.00150922
0.00170606
0.00204387
0.00248501
0.00289961
0.00320143
0.0033964
0.00353983
0.003693
0.00390001
0.00416003
0.00445618
0.00475084
0.00501563
0.00523393
0.0054083
0.00553335
0.00566833
0.00552018
0.00182198
0.00188319
0.00197287
0.00210779
0.00229767
0.00250986
0.00269356
0.00281707
0.00289904
0.00298545
0.00312866
0.00336122
0.00367913
0.00404152
0.00439972
0.00472073
0.00499166
0.00520551
0.00540941
0.00540072
0.00215392
0.00218574
0.00222903
0.00228704
0.00235687
0.00242456
0.00246807
0.00246794
0.00243413
0.00239662
0.00239868
0.00249311
0.00271613
0.00306268
0.00348262
0.00391234
0.00430505
0.00464088
0.00493772
0.00514024
0.00229228
0.00230424
0.0023182
0.00232994
0.00233273
0.002313
0.00225576
0.00215486
0.00202544
0.0018914
0.00178294
0.00172772
0.00176422
0.0019332
0.00225707
0.00270904
0.00321017
0.00369407
0.0041166
0.00457135
0.00209014
0.0020858
0.00207585
0.00204971
0.00199887
0.00191154
0.00178288
0.0016211
0.00144462
0.00127703
0.00113687
0.00103515
0.000977571
0.000977828
0.00106184
0.00127806
0.00165555
0.00218638
0.00273504
0.00350166
0.00134176
0.00133078
0.00130735
0.00126437
0.00119589
0.00109552
0.000967691
0.000823745
0.000682542
0.000559448
0.000461218
0.000389654
0.000340609
0.000312984
0.000303857
0.000323386
0.000384953
0.000561484
0.000796532
0.001622
0.000268514
0.00026608
0.00026015
0.000247994
0.000228402
0.000200101
0.000165594
0.000128911
9.49118e-05
6.75591e-05
4.83001e-05
3.51532e-05
2.69382e-05
2.21328e-05
1.97699e-05
1.93927e-05
1.83261e-05
2.84298e-05
2.05944e-05
0.000155985
4.62101e-05
4.47175e-05
4.39055e-05
4.20527e-05
4.00295e-05
3.82931e-05
3.54601e-05
3.37727e-05
3.27992e-05
3.29409e-05
3.47032e-05
3.56973e-05
3.71733e-05
3.7963e-05
3.90609e-05
3.92804e-05
4.00515e-05
4.04874e-05
4.14449e-05
4.22076e-05
3.1253e-05
1.3614e-05
2.6961e-05
3.51359e-05
3.651e-05
3.68208e-05
3.46283e-05
2.8758e-05
2.41096e-05
2.28545e-05
2.22303e-05
2.70598e-05
3.18412e-05
3.48943e-05
3.72051e-05
3.9664e-05
4.05064e-05
4.17843e-05
4.21749e-05
4.30556e-05
0.000172355
7.03095e-05
0.000119339
0.000124962
0.000121808
0.000130608
0.000135316
0.000136133
0.000131153
0.000122601
0.000114949
0.000115076
0.000137365
0.000153828
0.000166264
0.000174132
0.000179821
0.000185402
0.000188349
0.000193118
0.000227458
0.000166386
0.000206813
0.00023792
0.000278235
0.000311348
0.000328153
0.000328779
0.000316056
0.000294702
0.000273899
0.000258518
0.000268294
0.000283813
0.000296488
0.000306489
0.000314621
0.000321084
0.000324876
0.000330638
0.000271935
0.000247773
0.000330943
0.00045392
0.000529732
0.000587905
0.000616614
0.000614337
0.000588211
0.00054817
0.000506395
0.000466993
0.000455425
0.000465128
0.000477445
0.00048798
0.000496069
0.000503621
0.00050694
0.000513247
0.000311158
0.000341514
0.0005632
0.000769141
0.000887294
0.000978679
0.00102346
0.00101607
0.000971375
0.000904899
0.00083431
0.000769678
0.000729771
0.000720844
0.000723139
0.000728549
0.000732855
0.000736302
0.000738601
0.000740932
0.000350634
0.00046492
0.000913779
0.00120898
0.00138032
0.00151569
0.00157819
0.00156477
0.00149467
0.00139236
0.00128475
0.00118548
0.00111271
0.00107406
0.00105645
0.00104649
0.00104039
0.00103427
0.00103136
0.00102456
0.000396742
0.000674323
0.00140803
0.00180425
0.00204852
0.00223809
0.00232177
0.00229691
0.00219306
0.00204391
0.00188857
0.00174145
0.00162809
0.00155038
0.0014989
0.00146177
0.00143603
0.0014116
0.00139902
0.00137456
0.000457709
0.000979721
0.00199074
0.00253207
0.00290822
0.00318091
0.00329688
0.00325652
0.00310627
0.0028965
0.00267857
0.00247217
0.00230117
0.0021689
0.00207017
0.00199275
0.00193579
0.00188442
0.00185353
0.00180276
0.000528032
0.0014021
0.00260036
0.00332328
0.00387516
0.0042732
0.00445967
0.0044247
0.00423312
0.00395529
0.00366084
0.0033792
0.00313475
0.00293436
0.00277449
0.00264451
0.00254515
0.00245564
0.00240198
0.00231118
0.000580395
0.00184369
0.00320093
0.00410909
0.00483532
0.00536279
0.00562779
0.00561826
0.0054101
0.00508776
0.00473073
0.00438178
0.00406848
0.00379977
0.00357982
0.003393
0.00324745
0.00311466
0.00303344
0.00289709
0.000632575
0.00225715
0.00374784
0.00482269
0.00570506
0.00633898
0.00666445
0.00667865
0.00646559
0.00612446
0.0057365
0.00535079
0.00499521
0.00468171
0.0044157
0.00418499
0.00400015
0.00382897
0.00372195
0.0035396
0.000662601
0.00259457
0.00417359
0.00538432
0.00638349
0.00708853
0.00744531
0.00747273
0.00726849
0.00693467
0.00655278
0.00617074
0.00581116
0.0054869
0.0052016
0.0049512
0.00474342
0.00454887
0.00442523
0.00420223
0.000670837
0.00278017
0.00438457
0.00566802
0.00671996
0.00743723
0.00778962
0.00781898
0.0076403
0.00735492
0.00703239
0.00670746
0.00639683
0.00610737
0.0058466
0.00560851
0.00540599
0.00521067
0.00508675
0.00483813
0.000645581
0.002765
0.00425124
0.00548314
0.00647304
0.00711917
0.0074219
0.0074508
0.00732997
0.0071508
0.00696034
0.00676957
0.00658204
0.00639631
0.00621633
0.00604165
0.00588456
0.00572247
0.00562684
0.00537272
0.00124372
0.00230351
0.00344029
0.00443696
0.00523016
0.0057483
0.00600509
0.00607267
0.00606683
0.00606165
0.00608013
0.00610956
0.00613537
0.0061395
0.0061209
0.00607952
0.00602783
0.00595276
0.00592722
0.00568773
)
;

boundaryField
{
    inlet
    {
        type            fixedValue;
        value           uniform 4.65e-05;
    }
    outlet
    {
        type            zeroGradient;
    }
    frontAndBack
    {
        type            empty;
    }
    noslipwall
    {
        type            zeroGradient;
    }
}


// ************************************************************************* //
