/*--------------------------------*- C++ -*----------------------------------*\
  =========                 |
  \\      /  F ield         | OpenFOAM: The Open Source CFD Toolbox
   \\    /   O peration     | Website:  https://openfoam.org
    \\  /    A nd           | Version:  7
     \\/     M anipulation  |
\*---------------------------------------------------------------------------*/
FoamFile
{
    version     2.0;
    format      ascii;
    class       volScalarField;
    location    "486";
    object      p;
}
// * * * * * * * * * * * * * * * * * * * * * * * * * * * * * * * * * * * * * //

dimensions      [0 2 -2 0 0 0 0];

internalField   nonuniform List<scalar> 
900
(
-44.322
-71.919
-91.366
-98.4185
-102.668
-107.698
-114.158
-122.719
-132.173
-143.98
-44.2836
-71.9129
-91.3644
-98.4173
-102.667
-107.697
-114.159
-122.71
-132.194
-143.843
-44.2826
-71.903
-91.3601
-98.4142
-102.664
-107.694
-114.154
-122.68
-132.2
-143.169
-44.2958
-71.8905
-91.3533
-98.4091
-102.658
-107.683
-114.13
-122.606
-132.055
-142.342
-44.3121
-71.8766
-91.3447
-98.4017
-102.646
-107.657
-114.072
-122.433
-131.725
-141.237
-44.3308
-71.8614
-91.3351
-98.3915
-102.625
-107.606
-113.952
-122.1
-131.088
-139.66
-44.3546
-71.8463
-91.3272
-98.3786
-102.59
-107.511
-113.721
-121.51
-129.944
-137.406
-44.3851
-71.8302
-91.3254
-98.369
-102.538
-107.344
-113.3
-120.498
-128.005
-134.124
-44.4216
-71.8108
-91.324
-98.3594
-102.467
-107.087
-112.622
-118.935
-125.088
-129.593
-44.4626
-71.7882
-91.322
-98.3416
-102.352
-106.684
-111.573
-116.684
-121.164
-123.975
-44.5367
-71.7455
-91.3176
-98.2935
-102.057
-105.647
-108.914
-111.289
-112.356
-112.175
-44.5652
-71.7231
-91.3089
-98.209
-101.585
-104.073
-105.294
-105.071
-103.826
-102.171
-44.5453
-71.7263
-91.3009
-98.1421
-101.24
-102.992
-103.008
-101.47
-99.1741
-96.8614
-44.5046
-71.7406
-91.2947
-98.0974
-101.019
-102.31
-101.601
-99.3011
-96.426
-93.7892
-44.4582
-71.7587
-91.2894
-98.0689
-100.885
-101.89
-100.738
-97.9921
-94.8152
-92.0403
-44.413
-71.7786
-91.286
-98.0496
-100.802
-101.633
-100.209
-97.1932
-93.8302
-90.9588
-44.3712
-71.7967
-91.2871
-98.0445
-100.768
-101.508
-99.942
-96.7913
-93.3434
-90.4375
-44.3327
-71.8109
-91.2971
-98.052
-100.76
-101.455
-99.8205
-96.6063
-93.1191
-90.1949
-44.32
-71.8219
-91.3044
-98.0578
-100.76
-101.437
-99.7761
-96.5391
-93.0397
-90.1122
-44.4224
-71.845
-91.3074
-98.0599
-100.76
-101.433
-99.7664
-96.5245
-93.0226
-90.0947
-111.329
-110.072
-107.964
-104.552
-99.211
-91.3014
-80.4971
-67.1431
-52.3974
-37.9696
-25.439
-15.6757
-8.75623
-4.25828
-1.57388
-0.109646
0.564986
0.77928
0.60095
0.2854
-100.545
-98.7936
-96.4026
-93.1108
-88.5859
-82.496
-74.614
-64.9883
-54.0835
-42.7652
-32.0468
-22.7441
-15.263
-9.6353
-5.64311
-2.97375
-1.30197
-0.367746
0.0292264
0.065582
-94.8879
-92.9352
-90.4548
-87.2596
-83.1317
-77.8679
-71.316
-63.4581
-54.505
-44.9384
-35.4222
-26.6257
-19.03
-12.8784
-8.17201
-4.79323
-2.49847
-1.10672
-0.325522
-0.0750785
-91.6847
-89.6861
-87.222
-84.1377
-80.2673
-75.4605
-69.5959
-62.6337
-54.6831
-46.0559
-37.2362
-28.7877
-21.1934
-14.7909
-9.69463
-5.90802
-3.23776
-1.57012
-0.535756
-0.170983
-89.8889
-87.8699
-85.412
-82.3846
-78.6487
-74.0797
-68.574
-62.0874
-54.6859
-46.5987
-38.2079
-30.0054
-22.4533
-15.9341
-10.6205
-6.59686
-3.6944
-1.86085
-0.657314
-0.231342
-88.7718
-86.7486
-84.3066
-81.3209
-77.6681
-73.2377
-67.9363
-61.7185
-54.6294
-46.8547
-38.7202
-30.6724
-23.1592
-16.5832
-11.1525
-6.99541
-3.96432
-2.0337
-0.745376
-0.271294
-88.2424
-86.2164
-83.7783
-80.8112
-77.1995
-72.8392
-67.6415
-61.5605
-54.6304
-47.015
-39.011
-31.0413
-23.5454
-16.9368
-11.442
-7.21234
-4.1124
-2.12776
-0.799963
-0.288558
-87.9923
-85.9648
-83.5308
-80.5753
-76.986
-72.6619
-67.5157
-61.501
-54.6476
-47.1088
-39.1671
-31.2337
-23.7449
-17.1187
-11.5912
-7.32434
-4.18967
-2.17699
-0.830809
-0.296106
-87.9099
-85.8825
-83.4511
-80.5017
-76.9232
-72.6156
-67.4926
-61.5063
-54.6844
-47.177
-39.2597
-31.3386
-23.849
-17.2109
-11.6652
-7.37845
-4.22606
-2.19935
-0.844292
-0.298396
-87.8923
-85.865
-83.4348
-80.4889
-76.913
-72.6115
-67.4969
-61.5208
-54.7103
-47.2111
-39.3001
-31.3806
-23.8884
-17.2441
-11.6898
-7.39523
-4.23546
-2.20403
-0.845896
-0.297699
-154.344
-158.591
-173.987
-180.672
-171.661
-147.136
-108.881
-66.4107
-29.9168
-5.3817
7.80248
12.8207
13.2305
11.4051
8.96121
6.62575
4.68216
3.17751
1.75913
0.924534
-153.474
-157.589
-171.615
-178.084
-169.405
-145.548
-108.238
-66.6073
-30.6087
-6.18765
7.0981
12.2915
12.8635
11.1659
8.8107
6.53369
4.62764
3.14582
1.74368
0.908363
-152.533
-156.982
-169.166
-174.997
-166.53
-143.466
-107.426
-66.9264
-31.5854
-7.30379
6.13059
11.5695
12.3655
10.843
8.60818
6.41034
4.55492
3.10372
1.72391
0.886798
-151.392
-155.997
-166.047
-171.056
-162.855
-140.768
-106.364
-67.3674
-32.9181
-8.8384
4.79063
10.5661
11.6753
10.3982
8.33102
6.24263
4.45652
3.04718
1.6986
0.859348
-149.633
-154.242
-162.065
-165.982
-158.112
-137.282
-104.953
-67.9131
-34.6636
-10.8987
2.95222
9.16365
10.7007
9.76998
7.94275
6.01063
4.32176
2.97071
1.66634
0.825397
-147.074
-151.462
-157.092
-159.627
-152.123
-132.848
-103.058
-68.4986
-36.8385
-13.5639
0.505537
7.24488
9.33212
8.86887
7.38173
5.67908
4.13273
2.86647
1.6252
0.784564
-143.527
-147.33
-150.924
-151.887
-144.74
-127.315
-100.543
-69.0487
-39.4542
-16.9135
-2.65675
4.6995
7.47165
7.60782
6.56995
5.18429
3.84761
2.71417
1.56906
0.736561
-138.678
-141.497
-143.307
-142.71
-135.868
-120.546
-97.2343
-69.3965
-42.4198
-20.9534
-6.60602
1.43612
5.03533
5.91988
5.45893
4.48464
3.42291
2.46736
1.45704
0.670041
-132.433
-133.987
-134.289
-132.36
-125.791
-112.681
-93.082
-69.3388
-45.5045
-25.5266
-11.277
-2.54492
1.99176
3.77333
4.02604
3.57472
2.86292
2.14154
1.28727
0.580412
-125.26
-125.563
-124.666
-121.795
-115.488
-104.387
-88.3002
-68.6541
-48.255
-30.1975
-16.3809
-7.11254
-1.63168
1.14124
2.23388
2.41937
2.15201
1.72695
1.07802
0.485689
-159.967
-167.096
-181.821
-187.567
-177.375
-149.332
-105.849
-58.667
-19.6117
4.8529
16.3895
19.256
17.7521
14.4237
10.9355
7.89261
5.49897
3.68907
2.08216
1.17407
-159.993
-167.07
-181.788
-187.555
-177.382
-149.353
-105.881
-58.7026
-19.644
4.82745
16.372
19.2452
17.7443
14.4173
10.9306
7.88905
5.49622
3.6871
2.08044
1.17293
-159.952
-166.999
-181.735
-187.545
-177.407
-149.417
-105.978
-58.8106
-19.7416
4.7506
16.3174
19.2102
17.7216
14.401
10.919
7.88091
5.49017
3.68292
2.07685
1.17061
-159.883
-166.899
-181.701
-187.567
-177.463
-149.53
-106.143
-58.993
-19.9085
4.61688
16.2196
19.1446
17.6808
14.3741
10.9007
7.86849
5.48126
3.67698
2.07185
1.16745
-159.814
-166.858
-181.722
-187.646
-177.556
-149.693
-106.368
-59.2401
-20.1338
4.43539
16.0854
19.0521
17.6212
14.3356
10.875
7.85144
5.46924
3.66907
2.06535
1.16335
-159.761
-166.912
-181.824
-187.787
-177.696
-149.925
-106.679
-59.5764
-20.4395
4.18841
15.902
18.9235
17.5356
14.2802
10.8385
7.8274
5.45257
3.65823
2.05661
1.15789
-159.749
-167.058
-182.042
-187.992
-177.896
-150.25
-107.105
-60.037
-20.8586
3.8479
15.6482
18.7438
17.414
14.2009
10.7865
7.79347
5.42932
3.64328
2.0448
1.15056
-159.824
-167.314
-182.412
-188.264
-178.17
-150.685
-107.67
-60.6498
-21.4203
3.3871
15.3021
18.4982
17.2467
14.0911
10.7144
7.74668
5.39752
3.62302
2.0291
1.1408
-160.053
-167.741
-182.943
-188.603
-178.518
-151.219
-108.361
-61.4084
-22.1282
2.79584
14.8522
18.1763
17.0257
13.9451
10.6184
7.68436
5.35541
3.59624
2.00887
1.12806
-160.486
-168.396
-183.597
-188.99
-178.927
-151.811
-109.12
-62.2579
-22.9458
2.09261
14.3041
17.7776
16.7484
13.7599
10.496
7.60456
5.30173
3.56202
1.98372
1.11186
-161.162
-169.202
-184.257
-189.375
-179.352
-152.4
-109.879
-63.1334
-23.8295
1.30089
13.6659
17.3031
16.4129
13.5333
10.345
7.50585
5.23566
3.51978
1.95373
1.09173
-161.917
-169.902
-184.686
-189.62
-179.662
-152.871
-110.554
-63.9875
-24.7682
0.412502
12.922
16.7384
16.0083
13.258
10.1613
7.38562
5.15599
3.46886
1.91938
1.06715
-162.501
-169.928
-184.513
-189.439
-179.569
-152.972
-110.995
-64.7781
-25.7954
-0.631329
12.0161
16.0405
15.5055
12.9162
9.93435
7.23811
5.05999
3.40785
1.88125
1.03739
-161.933
-168.873
-183.217
-188.376
-178.562
-152.266
-110.971
-65.4829
-27.0202
-1.97171
10.8284
15.1241
14.8486
12.4735
9.64418
7.05204
4.94197
3.33393
1.83938
1.0011
-160.315
-164.175
-179.694
-185.69
-175.886
-150.133
-110.17
-66.1139
-28.6349
-3.84028
9.16772
13.8543
13.9505
11.8767
9.25955
6.80977
4.79258
3.24254
1.79201
0.95637
)
;

boundaryField
{
    inlet
    {
        type            zeroGradient;
    }
    outlet
    {
        type            fixedValue;
        value           uniform 0;
    }
    frontAndBack
    {
        type            empty;
    }
    noslipwall
    {
        type            zeroGradient;
    }
}


// ************************************************************************* //
