/*--------------------------------*- C++ -*----------------------------------*\
  =========                 |
  \\      /  F ield         | OpenFOAM: The Open Source CFD Toolbox
   \\    /   O peration     | Website:  https://openfoam.org
    \\  /    A nd           | Version:  7
     \\/     M anipulation  |
\*---------------------------------------------------------------------------*/
FoamFile
{
    version     2.0;
    format      ascii;
    class       volScalarField;
    location    "486";
    object      p1;
}
// * * * * * * * * * * * * * * * * * * * * * * * * * * * * * * * * * * * * * //

dimensions      [0 2 -2 0 0 0 0];

internalField   nonuniform List<scalar> 
900
(
-52.3074
-83.5337
-105.588
-113.607
-118.447
-124.193
-131.601
-141.45
-152.35
-165.951
-52.263
-83.5268
-105.586
-113.606
-118.446
-124.192
-131.603
-141.44
-152.374
-165.798
-52.2617
-83.5155
-105.581
-113.602
-118.442
-124.188
-131.597
-141.405
-152.382
-165.028
-52.2766
-83.5014
-105.573
-113.597
-118.435
-124.175
-131.57
-141.32
-152.215
-164.083
-52.295
-83.4856
-105.564
-113.588
-118.421
-124.145
-131.504
-141.121
-151.837
-162.817
-52.3162
-83.4685
-105.553
-113.577
-118.398
-124.087
-131.365
-140.738
-151.105
-161.007
-52.3432
-83.4516
-105.544
-113.562
-118.358
-123.978
-131.101
-140.06
-149.79
-158.416
-52.3778
-83.4335
-105.542
-113.551
-118.298
-123.787
-130.618
-138.897
-147.561
-154.641
-52.4191
-83.4116
-105.54
-113.54
-118.217
-123.493
-129.84
-137.101
-144.206
-149.424
-52.4655
-83.3863
-105.538
-113.519
-118.086
-123.03
-128.634
-134.514
-139.689
-142.949
-52.5495
-83.3382
-105.533
-113.464
-117.748
-121.84
-125.577
-128.303
-129.533
-129.326
-52.5818
-83.3132
-105.523
-113.367
-117.206
-120.031
-121.41
-121.138
-119.693
-117.781
-52.5592
-83.3169
-105.514
-113.291
-116.811
-118.788
-118.778
-116.989
-114.331
-111.656
-52.513
-83.333
-105.507
-113.239
-116.557
-118.004
-117.16
-114.491
-111.164
-108.114
-52.4603
-83.3534
-105.5
-113.207
-116.403
-117.522
-116.168
-112.985
-109.31
-106.1
-52.4091
-83.3759
-105.497
-113.185
-116.308
-117.227
-115.56
-112.067
-108.177
-104.856
-52.3617
-83.3963
-105.498
-113.179
-116.269
-117.083
-115.253
-111.605
-107.617
-104.256
-52.318
-83.4122
-105.509
-113.187
-116.259
-117.022
-115.113
-111.392
-107.358
-103.976
-52.3041
-83.4246
-105.517
-113.193
-116.258
-117.001
-115.062
-111.314
-107.266
-103.88
-52.4224
-83.4511
-105.521
-113.196
-116.259
-116.996
-115.05
-111.296
-107.245
-103.859
-128.354
-126.905
-124.472
-120.53
-114.351
-105.192
-92.6761
-77.2093
-60.1457
-43.4805
-29.0464
-17.8375
-9.92283
-4.79773
-1.75214
-0.0995803
0.656987
0.894124
0.686878
0.325237
-115.902
-113.878
-111.114
-107.308
-102.073
-95.0264
-85.9041
-74.7652
-62.1536
-49.0794
-36.7205
-26.0175
-17.4303
-10.9852
-6.42296
-3.37887
-1.4759
-0.413938
0.0359098
0.0753331
-109.374
-107.115
-104.247
-100.551
-95.776
-89.6866
-82.1072
-73.0186
-62.6683
-51.6182
-40.6406
-30.5096
-21.777
-14.7175
-9.326
-5.46232
-2.84289
-1.25666
-0.368105
-0.0846733
-105.68
-103.369
-100.519
-96.951
-92.4742
-86.9142
-80.1311
-72.08
-62.8897
-52.9242
-42.7465
-33.0103
-24.2719
-16.9168
-11.0726
-6.73788
-3.68684
-1.78461
-0.607304
-0.193729
-103.611
-101.276
-98.4333
-94.9315
-90.6103
-85.3257
-78.9581
-71.4573
-62.9016
-53.5589
-43.8741
-34.4176
-25.7236
-18.2305
-12.1338
-7.5255
-4.20785
-2.11566
-0.745497
-0.262445
-102.327
-99.9863
-97.1617
-93.708
-89.4825
-84.358
-78.2265
-71.0364
-62.8414
-53.859
-44.4685
-35.1884
-26.5367
-18.9761
-12.7433
-7.98102
-4.51568
-2.31248
-0.84544
-0.307996
-101.716
-99.3727
-96.5527
-93.1207
-88.9428
-83.8995
-77.8879
-70.8558
-62.8446
-54.0458
-44.8053
-35.6143
-26.9815
-19.3823
-13.0752
-8.22908
-4.68467
-2.41973
-0.907531
-0.327793
-101.428
-99.0824
-96.2669
-92.8484
-88.6965
-83.6949
-77.743
-70.7879
-62.8654
-54.1548
-44.986
-35.8366
-27.2113
-19.5913
-13.2463
-8.35729
-4.77293
-2.47591
-0.942633
-0.336465
-101.333
-98.9882
-96.1754
-92.7638
-88.6243
-83.6416
-77.7162
-70.794
-62.9083
-54.2338
-45.093
-35.9575
-27.3312
-19.6973
-13.3312
-8.41937
-4.81463
-2.50149
-0.958007
-0.339121
-101.311
-98.9665
-96.1552
-92.7472
-88.6119
-83.6364
-77.7207
-70.8101
-62.9372
-54.2731
-45.1397
-36.0062
-27.3765
-19.7352
-13.3594
-8.43849
-4.82551
-2.50705
-0.959914
-0.338386
-177.927
-183.075
-201.235
-209.037
-198.615
-170.104
-125.515
-76.0363
-33.6951
-5.43496
9.57254
15.1339
15.4265
13.2091
10.3238
7.59904
5.35394
3.62652
2.00375
1.05153
-176.943
-181.919
-198.465
-206.017
-195.977
-168.245
-124.768
-76.2775
-34.5154
-6.38344
8.74831
14.5179
15.0013
12.933
10.1507
7.49355
5.29158
3.59033
1.98616
1.03306
-175.872
-181.209
-195.592
-202.412
-192.613
-165.807
-123.824
-76.6646
-35.6704
-7.69437
7.61786
13.6783
14.4247
12.5604
9.91794
7.35226
5.20842
3.54224
1.96366
1.00846
-174.57
-180.059
-191.935
-197.805
-188.312
-162.65
-122.589
-77.1965
-37.2423
-9.49313
6.0548
12.513
13.6263
12.0474
9.59949
7.16021
5.09593
3.47768
1.93487
0.977159
-172.555
-178.016
-187.273
-191.879
-182.769
-158.574
-120.949
-77.8528
-39.2966
-11.9035
3.91412
10.8869
12.5004
11.3237
9.15363
6.89466
4.94191
3.39038
1.89816
0.938474
-169.613
-174.789
-181.462
-184.466
-175.778
-153.397
-118.747
-78.5589
-41.8529
-15.0173
1.06917
8.66534
10.9218
10.287
8.51013
6.51544
4.72601
3.27143
1.85133
0.891978
-165.527
-169.998
-174.271
-175.448
-167.174
-146.947
-115.83
-79.2283
-44.9247
-18.9267
-2.60414
5.7212
8.77795
8.8382
7.58027
5.95021
4.40069
3.09774
1.78739
0.837367
-159.936
-163.247
-165.415
-164.773
-156.854
-139.076
-111.999
-79.6682
-48.4066
-23.6378
-7.18757
1.94957
5.97259
6.90037
6.30866
5.15179
3.91682
2.81679
1.66002
0.761775
-152.732
-154.562
-154.956
-152.757
-145.156
-129.95
-107.2
-79.6434
-52.0304
-28.9692
-12.6068
-2.65068
2.46818
4.43606
4.66856
4.11332
3.279
2.44617
1.46735
0.660166
-144.454
-144.824
-143.81
-140.506
-133.208
-120.338
-101.677
-78.8912
-55.2662
-34.4156
-18.5302
-7.93158
-1.70704
1.41178
2.61519
2.79332
2.4685
1.97419
1.22965
0.552727
-184.441
-192.942
-210.341
-217.069
-205.311
-172.688
-121.957
-66.9244
-21.5847
6.55703
19.5938
22.6096
20.6571
16.69
12.5925
9.05037
6.28878
4.21189
2.37262
1.33743
-184.467
-192.911
-210.303
-217.055
-205.319
-172.713
-121.996
-66.9673
-21.6236
6.5267
19.5729
22.5967
20.6476
16.6823
12.5865
9.04596
6.28539
4.20948
2.37052
1.33602
-184.415
-192.823
-210.242
-217.045
-205.349
-172.788
-122.11
-67.0944
-21.7384
6.43649
19.5089
22.5557
20.621
16.6632
12.5729
9.03634
6.27824
4.20456
2.36627
1.33328
-184.335
-192.707
-210.21
-217.075
-205.415
-172.919
-122.301
-67.3057
-21.9313
6.28214
19.3964
22.4806
20.5744
16.6325
12.552
9.02215
6.26804
4.19773
2.36052
1.32963
-184.257
-192.669
-210.245
-217.172
-205.523
-173.109
-122.564
-67.5928
-22.1925
6.07234
19.2419
22.3744
20.5062
16.5886
12.5228
9.00267
6.25428
4.18866
2.35305
1.32492
-184.198
-192.745
-210.374
-217.339
-205.685
-173.379
-122.926
-67.985
-22.5483
5.78561
19.0298
22.2261
20.4077
16.5249
12.481
8.97515
6.23514
4.1762
2.343
1.31864
-184.19
-192.929
-210.638
-217.578
-205.917
-173.758
-123.424
-68.5225
-23.0366
5.38983
18.7354
22.0186
20.2676
16.4338
12.4213
8.93629
6.20847
4.15904
2.32942
1.31019
-184.288
-193.243
-211.077
-217.895
-206.236
-174.266
-124.084
-69.2379
-23.691
4.85424
18.3343
21.7347
20.0748
16.3074
12.3386
8.88273
6.17205
4.13579
2.31143
1.29898
-184.568
-193.758
-211.702
-218.286
-206.641
-174.889
-124.89
-70.1235
-24.5161
4.1667
17.8125
21.3626
19.8202
16.1395
12.2284
8.81139
6.12386
4.10512
2.28827
1.28437
-185.093
-194.537
-212.465
-218.733
-207.116
-175.581
-125.777
-71.1158
-25.47
3.34805
17.1762
20.9012
19.5004
15.9265
12.0879
8.72007
6.06246
4.06597
2.25952
1.26579
-185.901
-195.486
-213.229
-219.177
-207.611
-176.269
-126.664
-72.1396
-26.5024
2.42491
16.4342
20.3516
19.1131
15.6656
11.9147
8.60707
5.98689
4.01768
2.2253
1.24273
-186.792
-196.301
-213.72
-219.457
-207.972
-176.819
-127.455
-73.1406
-27.6019
1.38649
15.5675
19.6963
18.6454
15.3484
11.7037
8.46944
5.89579
3.95946
2.18615
1.21461
-187.468
-196.314
-213.506
-219.244
-207.862
-176.938
-127.974
-74.0711
-28.8099
0.162102
14.5092
18.885
18.0635
14.9542
11.443
8.30054
5.78602
3.88972
2.14271
1.18055
-186.778
-195.058
-211.989
-218.009
-206.685
-176.111
-127.949
-74.9076
-30.2571
-1.41521
13.1186
17.8179
17.3024
14.4432
11.1094
8.08745
5.65108
3.80524
2.09506
1.13905
-184.858
-189.567
-207.89
-214.89
-203.557
-173.613
-127.016
-75.667
-32.1716
-3.61764
11.1723
16.3383
16.2613
13.7539
10.6671
7.80996
5.48027
3.70083
2.04117
1.08792
)
;

boundaryField
{
    inlet
    {
        type            zeroGradient;
    }
    outlet
    {
        type            fixedValue;
        value           uniform 0;
    }
    frontAndBack
    {
        type            empty;
    }
    noslipwall
    {
        type            zeroGradient;
    }
}


// ************************************************************************* //
