/*--------------------------------*- C++ -*----------------------------------*\
  =========                 |
  \\      /  F ield         | OpenFOAM: The Open Source CFD Toolbox
   \\    /   O peration     | Website:  https://openfoam.org
    \\  /    A nd           | Version:  7
     \\/     M anipulation  |
\*---------------------------------------------------------------------------*/
FoamFile
{
    version     2.0;
    format      ascii;
    class       surfaceScalarField;
    location    "486";
    object      phi1;
}
// * * * * * * * * * * * * * * * * * * * * * * * * * * * * * * * * * * * * * //

dimensions      [0 3 -1 0 0 0 0];

internalField   nonuniform List<scalar> 
1735
(
7.7725e-06
4.62569e-06
7.24339e-06
5.29118e-07
7.13179e-06
1.11598e-07
7.08257e-06
4.92135e-08
7.07389e-06
8.68775e-09
7.11135e-06
-3.74591e-08
7.19388e-06
-8.25303e-08
7.27986e-06
-8.59879e-08
7.47286e-06
-1.92996e-07
-7.72835e-08
7.55014e-06
1.1703e-05
8.9356e-06
1.09387e-05
1.29345e-06
1.07532e-05
2.97085e-07
1.06704e-05
1.32007e-07
1.06489e-05
3.01174e-08
1.06971e-05
-8.56227e-08
1.07953e-05
-1.80708e-07
1.09382e-05
-2.28866e-07
1.11231e-05
-3.77886e-07
-2.92802e-07
1.13386e-05
1.6861e-05
1.27561e-05
1.57823e-05
2.37211e-06
1.54559e-05
6.23489e-07
1.53092e-05
2.78738e-07
1.52602e-05
7.90294e-08
1.53102e-05
-1.35608e-07
1.54269e-05
-2.97339e-07
1.56082e-05
-4.10189e-07
1.58325e-05
-6.02153e-07
-5.29921e-07
1.60696e-05
2.36305e-05
1.58367e-05
2.22142e-05
3.78839e-06
2.16737e-05
1.16398e-06
2.14224e-05
5.30109e-07
2.1326e-05
1.75374e-07
2.13654e-05
-1.75044e-07
2.1502e-05
-4.33884e-07
2.17147e-05
-6.22865e-07
2.19816e-05
-8.69122e-07
-8.02558e-07
2.22543e-05
3.2586e-05
1.77495e-05
3.09269e-05
5.44751e-06
3.01041e-05
1.98677e-06
2.96935e-05
9.40742e-07
2.95212e-05
3.47681e-07
2.95331e-05
-1.87025e-07
2.96868e-05
-5.87517e-07
2.99331e-05
-8.69151e-07
3.02368e-05
-1.17289e-06
-1.11249e-06
3.05468e-05
4.43117e-05
1.79946e-05
4.26954e-05
7.06389e-06
4.15861e-05
3.09601e-06
4.09648e-05
1.56209e-06
4.06816e-05
6.30897e-07
4.06462e-05
-1.51657e-07
4.08075e-05
-7.48822e-07
4.10892e-05
-1.15087e-06
4.14209e-05
-1.50455e-06
-1.44896e-06
4.17574e-05
5.86728e-05
1.68691e-05
5.81021e-05
7.63461e-06
5.70449e-05
4.15319e-06
5.62566e-05
2.35037e-06
5.58516e-05
1.03599e-06
5.57597e-05
-5.9785e-08
5.59203e-05
-9.09437e-07
5.6233e-05
-1.46352e-06
5.65799e-05
-1.85153e-06
-1.79021e-06
5.69212e-05
7.58372e-05
1.53571e-05
7.65542e-05
6.91766e-06
7.6581e-05
4.12639e-06
7.62908e-05
2.64057e-06
7.60451e-05
1.28169e-06
7.59989e-05
-1.35911e-08
7.61811e-05
-1.09165e-06
7.65091e-05
-1.79157e-06
7.68381e-05
-2.18052e-06
-2.08784e-06
7.71358e-05
9.78828e-05
1.34691e-05
9.88592e-05
5.9413e-06
9.94376e-05
3.54798e-06
9.98002e-05
2.27801e-06
0.000100076
1.00596e-06
0.000100384
-3.2186e-07
0.000100782
-1.48965e-06
0.000101217
-2.22621e-06
0.000101557
-2.52121e-06
-2.33282e-06
0.000101802
0.000126449
1.10023e-05
0.000127676
4.71424e-06
0.000128412
2.81228e-06
0.000128925
1.76447e-06
0.000129342
5.89355e-07
0.000129767
-7.46777e-07
0.000130227
-1.95047e-06
0.000130657
-2.656e-06
0.000130939
-2.80307e-06
-2.48143e-06
0.000131088
0.000379502
3.44632e-06
0.00038303
1.18654e-06
0.000385215
6.26873e-07
0.000386732
2.47847e-07
0.000387856
-5.3471e-07
0.000388796
-1.68686e-06
0.00038952
-2.67447e-06
0.000389904
-3.03958e-06
0.00038992
-2.81923e-06
-2.29441e-06
0.000389733
0.000293849
-2.41847e-06
0.000296566
-1.53049e-06
0.000298258
-1.06451e-06
0.000299397
-8.9179e-07
0.0003001
-1.23781e-06
0.00030045
-2.03707e-06
0.000300482
-2.70603e-06
0.000300275
-2.83226e-06
0.000299946
-2.4907e-06
-1.95178e-06
0.000299604
0.000227504
-6.94705e-06
0.000229623
-3.64924e-06
0.000230937
-2.37861e-06
0.000231796
-1.75101e-06
0.000232246
-1.6876e-06
0.000232337
-2.12797e-06
0.000232151
-2.51968e-06
0.000231811
-2.49237e-06
0.000231435
-2.11501e-06
-1.61726e-06
0.000231101
0.000176131
-1.04355e-05
0.00017779
-5.30917e-06
0.000178815
-3.40319e-06
0.000179469
-2.40528e-06
0.000179772
-1.99037e-06
0.000179759
-2.11521e-06
0.00017952
-2.28086e-06
0.000179179
-2.15136e-06
0.00017884
-1.77595e-06
-1.33564e-06
0.000178559
0.000136358
-1.31227e-05
0.00013767
-6.62096e-06
0.00013846
-4.19385e-06
0.000138919
-2.86438e-06
0.000139074
-2.14493e-06
0.000138961
-2.00266e-06
0.000138671
-1.99062e-06
0.00013832
-1.80056e-06
0.000137997
-1.45282e-06
-1.07777e-06
0.000137739
0.000105623
-1.52493e-05
0.000106359
-7.35768e-06
0.000106376
-4.21067e-06
0.000106087
-2.57553e-06
0.000105683
-1.74057e-06
0.000105197
-1.51622e-06
0.000104672
-1.4658e-06
0.000104182
-1.31114e-06
0.000103781
-1.05096e-06
-7.76279e-07
0.000103479
8.08669e-05
-1.59828e-05
7.96989e-05
-6.18972e-06
7.84323e-05
-2.94405e-06
7.75218e-05
-1.66503e-06
7.68755e-05
-1.09433e-06
7.63209e-05
-9.61531e-07
7.58014e-05
-9.46368e-07
7.53453e-05
-8.54987e-07
7.49821e-05
-6.87813e-07
-5.08574e-07
7.47144e-05
5.95157e-05
-1.34541e-05
5.73567e-05
-4.03071e-06
5.61104e-05
-1.6978e-06
5.53727e-05
-9.27299e-07
5.488e-05
-6.01605e-07
5.44551e-05
-5.3665e-07
5.40477e-05
-5.39024e-07
5.36849e-05
-4.92124e-07
5.33945e-05
-3.9744e-07
-2.94239e-07
5.31802e-05
4.24043e-05
-7.81976e-06
4.01936e-05
-1.81998e-06
3.92214e-05
-7.25633e-07
3.86821e-05
-3.88001e-07
3.83323e-05
-2.51838e-07
3.80279e-05
-2.32216e-07
3.77273e-05
-2.38449e-07
3.74544e-05
-2.19152e-07
3.72341e-05
-1.77221e-07
-1.3119e-07
3.70711e-05
2.93748e-05
2.75549e-05
2.68292e-05
2.64412e-05
2.61894e-05
2.59572e-05
2.57187e-05
2.54996e-05
2.53224e-05
2.51912e-05
0.000389472
-1.80738e-06
2.06767e-06
0.00038901
-2.26958e-06
2.73206e-06
0.00038824
-2.86335e-06
3.63348e-06
0.000387013
-3.61851e-06
4.84563e-06
0.000385151
-4.55579e-06
6.41707e-06
0.000382533
-5.65969e-06
8.27856e-06
0.000379181
-6.84945e-06
1.02014e-05
0.000375326
-7.969e-06
1.18232e-05
0.000371376
-8.8158e-06
1.2766e-05
0.000367754
-9.21254e-06
1.28347e-05
0.000364754
-9.08727e-06
1.2087e-05
0.000362484
-8.47629e-06
1.07461e-05
0.000360909
-7.51204e-06
9.08787e-06
0.000359897
-6.334e-06
7.3455e-06
0.000359302
-5.13343e-06
5.7288e-06
0.000358984
-3.97664e-06
4.29417e-06
0.000358847
-3.05269e-06
3.19007e-06
0.000358839
-2.23428e-06
2.24188e-06
0.000358894
-1.82045e-06
1.766e-06
-1.49062e-06
1.31388e-06
0.000299293
-1.49647e-06
0.000298859
-1.83612e-06
0.000298256
-2.26049e-06
0.000297423
-2.78561e-06
0.00029629
-3.42208e-06
0.000294794
-4.16418e-06
0.000292921
-4.97594e-06
0.00029073
-5.77862e-06
0.000288371
-6.45696e-06
0.000286042
-6.88271e-06
0.000283924
-6.96928e-06
0.000282136
-6.68813e-06
0.000280724
-6.10071e-06
0.000279674
-5.28365e-06
0.000278937
-4.39681e-06
0.000278448
-3.48735e-06
0.000278151
-2.75608e-06
0.000277995
-2.07804e-06
0.00027794
-1.76568e-06
-1.51246e-06
0.000230825
-1.22045e-06
0.000230467
-1.47879e-06
0.000230004
-1.79701e-06
0.000229404
-2.18547e-06
0.000228633
-2.65118e-06
0.00022766
-3.19158e-06
0.000226471
-3.78714e-06
0.000225084
-4.39099e-06
0.000223557
-4.93018e-06
0.000221986
-5.31162e-06
0.000220477
-5.46083e-06
0.000219121
-5.33158e-06
0.000217975
-4.95493e-06
0.000217061
-4.36899e-06
0.000216374
-3.70999e-06
0.000215884
-2.99722e-06
0.000215565
-2.43764e-06
0.000215368
-1.88111e-06
0.000215282
-1.67916e-06
-1.46986e-06
0.000178337
-9.98183e-07
0.000178058
-1.19996e-06
0.000177707
-1.44634e-06
0.000177266
-1.74464e-06
0.000176715
-2.09996e-06
0.000176034
-2.51102e-06
0.000175213
-2.9655e-06
0.000174254
-3.43215e-06
0.000173185
-3.86087e-06
0.000172056
-4.1826e-06
0.000170932
-4.33733e-06
0.000169879
-4.27874e-06
0.000168948
-4.02357e-06
0.000168169
-3.59023e-06
0.000167551
-3.09222e-06
0.000167086
-2.53225e-06
0.000166753
-2.10413e-06
0.00016652
-1.64812e-06
0.000166365
-1.52436e-06
-1.32635e-06
0.00013754
-7.98429e-07
0.000137293
-9.53767e-07
0.000136989
-1.14227e-06
0.000136614
-1.36914e-06
0.000136152
-1.63791e-06
0.000135588
-1.94762e-06
0.000134912
-2.28936e-06
0.000134121
-2.64107e-06
0.000133226
-2.96608e-06
0.000132257
-3.21351e-06
0.000131255
-3.33513e-06
0.00013027
-3.29404e-06
0.000129342
-3.09547e-06
0.000128509
-2.7571e-06
0.000127772
-2.35486e-06
0.000127149
-1.90995e-06
0.000126587
-1.54126e-06
0.000126119
-1.18062e-06
0.000125611
-1.01599e-06
-8.52556e-07
0.000103254
-5.73639e-07
0.000102984
-6.83599e-07
0.000102659
-8.1672e-07
0.000102266
-9.76474e-07
0.000101793
-1.16505e-06
0.000101227
-1.38157e-06
0.000100557
-1.61948e-06
9.97792e-05
-1.8632e-06
9.88995e-05
-2.0864e-06
9.79391e-05
-2.25307e-06
9.69309e-05
-2.32699e-06
9.59191e-05
-2.2822e-06
9.49423e-05
-2.11864e-06
9.40397e-05
-1.85454e-06
9.32206e-05
-1.53575e-06
9.25083e-05
-1.19764e-06
9.18611e-05
-8.94099e-07
9.13199e-05
-6.39391e-07
9.07606e-05
-4.56651e-07
-3.84176e-07
7.45166e-05
-3.75811e-07
7.42807e-05
-4.4775e-07
7.39988e-05
-5.34826e-07
7.36616e-05
-6.39248e-07
7.32588e-05
-7.62257e-07
7.27804e-05
-9.03157e-07
7.22183e-05
-1.05732e-06
7.15694e-05
-1.21429e-06
7.08392e-05
-1.35623e-06
7.00452e-05
-1.45906e-06
6.92159e-05
-1.4977e-06
6.8389e-05
-1.45529e-06
6.76005e-05
-1.33018e-06
6.68841e-05
-1.13816e-06
6.62543e-05
-9.05912e-07
6.57256e-05
-6.68923e-07
6.52773e-05
-4.45863e-07
6.49211e-05
-2.83133e-07
6.45938e-05
-1.29364e-07
-1.19376e-07
5.30219e-05
-2.17529e-07
5.28333e-05
-2.59158e-07
5.26081e-05
-3.09583e-07
5.23388e-05
-3.69978e-07
5.20174e-05
-4.40907e-07
5.16362e-05
-5.21912e-07
5.11888e-05
-6.09921e-07
5.06732e-05
-6.98653e-07
5.00941e-05
-7.77176e-07
4.9466e-05
-8.31012e-07
4.88135e-05
-8.4511e-07
4.81683e-05
-8.1011e-07
4.75632e-05
-7.25127e-07
4.70272e-05
-6.02157e-07
4.65774e-05
-4.56091e-07
4.62222e-05
-3.13701e-07
4.59541e-05
-1.77821e-07
4.57625e-05
-9.15087e-08
4.56269e-05
6.23734e-09
-1.16727e-08
3.69505e-05
-9.69228e-08
3.68067e-05
-1.15337e-07
3.66347e-05
-1.37609e-07
3.64289e-05
-1.6414e-07
3.6183e-05
-1.95031e-07
3.5891e-05
-2.29955e-07
3.55483e-05
-2.6717e-07
3.51532e-05
-3.0363e-07
3.47102e-05
-3.34095e-07
3.42313e-05
-3.52136e-07
3.37374e-05
-3.51217e-07
3.32555e-05
-3.28255e-07
3.28144e-05
-2.83997e-07
3.24379e-05
-2.25608e-07
3.21415e-05
-1.59738e-07
3.19277e-05
-9.99069e-08
3.17934e-05
-4.34701e-08
3.17161e-05
-1.42538e-08
3.1696e-05
2.63337e-08
8.22044e-09
2.50942e-05
2.49789e-05
2.48413e-05
2.46772e-05
2.44821e-05
2.42522e-05
2.3985e-05
2.36814e-05
2.33473e-05
2.29951e-05
2.26439e-05
2.23157e-05
2.20317e-05
2.18061e-05
2.16463e-05
2.15464e-05
2.15029e-05
2.14887e-05
2.1515e-05
7.34326e-06
-9.42246e-07
1.14914e-06
7.27273e-06
-1.00478e-06
1.07532e-06
7.3835e-06
-2.5435e-06
2.43273e-06
7.65307e-06
-5.14686e-06
4.87728e-06
7.96782e-06
-8.58994e-06
8.27519e-06
8.26525e-06
-1.26285e-05
1.2331e-05
8.51111e-06
-1.60974e-05
1.58515e-05
8.70826e-06
-1.80149e-05
1.78177e-05
8.8816e-06
-1.79587e-05
1.77854e-05
9.04616e-06
-1.64339e-05
1.62693e-05
9.19918e-06
-1.41288e-05
1.39758e-05
9.33218e-06
-1.16719e-05
1.15389e-05
9.43952e-06
-9.39337e-06
9.28604e-06
9.52155e-06
-7.44059e-06
7.35858e-06
9.58172e-06
-5.91109e-06
5.85094e-06
9.62462e-06
-4.64019e-06
4.59731e-06
9.6575e-06
-3.84223e-06
3.80936e-06
9.68081e-06
-2.96017e-06
2.93686e-06
9.70743e-06
-2.89461e-06
2.86799e-06
-2.06279e-06
2.04221e-06
1.13612e-05
-9.64824e-07
1.13844e-05
-1.02805e-06
1.13429e-05
-2.50198e-06
1.14064e-05
-5.21035e-06
1.15613e-05
-8.74487e-06
1.17317e-05
-1.27989e-05
1.18708e-05
-1.62365e-05
1.19815e-05
-1.81256e-05
1.20943e-05
-1.80715e-05
1.22219e-05
-1.65615e-05
1.23539e-05
-1.42608e-05
1.24731e-05
-1.17912e-05
1.25683e-05
-9.48849e-06
1.26373e-05
-7.50962e-06
1.2683e-05
-5.95679e-06
1.2711e-05
-4.66813e-06
1.27289e-05
-3.86012e-06
1.27385e-05
-2.96987e-06
1.27533e-05
-2.90939e-06
-2.07682e-06
1.61763e-05
-1.07157e-06
1.64199e-05
-1.27167e-06
1.65502e-05
-2.63226e-06
1.66008e-05
-5.26094e-06
1.66093e-05
-8.75337e-06
1.65809e-05
-1.27705e-05
1.65347e-05
-1.61902e-05
1.64996e-05
-1.80905e-05
1.6514e-05
-1.8086e-05
1.65807e-05
-1.66283e-05
1.66744e-05
-1.43544e-05
1.67638e-05
-1.18806e-05
1.68297e-05
-9.55442e-06
1.68676e-05
-7.54744e-06
1.68799e-05
-5.9691e-06
1.68744e-05
-4.66262e-06
1.68591e-05
-3.84482e-06
1.68392e-05
-2.94998e-06
1.68263e-05
-2.89644e-06
-2.07488e-06
2.2385e-05
-1.20234e-06
2.27015e-05
-1.58808e-06
2.29577e-05
-2.88847e-06
2.30982e-05
-5.40145e-06
2.3102e-05
-8.75721e-06
2.29551e-05
-1.26235e-05
2.27421e-05
-1.59772e-05
2.25576e-05
-1.79061e-05
2.2472e-05
-1.80004e-05
2.2483e-05
-1.66393e-05
2.25472e-05
-1.44186e-05
2.26114e-05
-1.19448e-05
2.26435e-05
-9.58648e-06
2.26356e-05
-7.53958e-06
2.25927e-05
-5.9262e-06
2.25286e-05
-4.59851e-06
2.24527e-05
-3.7689e-06
2.23781e-05
-2.87532e-06
2.231e-05
-2.82839e-06
-2.03919e-06
3.07004e-05
-1.35594e-06
3.10278e-05
-1.91551e-06
3.13139e-05
-3.17456e-06
3.14529e-05
-5.54047e-06
3.14143e-05
-8.71859e-06
3.11691e-05
-1.23783e-05
3.08256e-05
-1.56338e-05
3.05185e-05
-1.75989e-05
3.03496e-05
-1.78315e-05
3.03233e-05
-1.66131e-05
3.03897e-05
-1.4485e-05
3.04726e-05
-1.20277e-05
3.05112e-05
-9.62504e-06
3.04791e-05
-7.50744e-06
3.0379e-05
-5.82612e-06
3.02373e-05
-4.45681e-06
3.00693e-05
-3.60093e-06
2.99073e-05
-2.71328e-06
2.97417e-05
-2.66285e-06
-1.93923e-06
4.19357e-05
-1.53425e-06
4.22482e-05
-2.22805e-06
4.2531e-05
-3.45738e-06
4.26313e-05
-5.6407e-06
4.25079e-05
-8.59525e-06
4.21376e-05
-1.2008e-05
4.16309e-05
-1.51271e-05
4.11525e-05
-1.71206e-05
4.08363e-05
-1.75153e-05
4.07117e-05
-1.64884e-05
4.07392e-05
-1.45125e-05
4.0837e-05
-1.21255e-05
4.09313e-05
-9.7194e-06
4.0959e-05
-7.53515e-06
4.08771e-05
-5.74417e-06
4.06974e-05
-4.27711e-06
4.04365e-05
-3.33999e-06
4.01676e-05
-2.44441e-06
3.98563e-05
-2.35154e-06
-1.73269e-06
5.71144e-05
-1.72745e-06
5.73863e-05
-2.49994e-06
5.76307e-05
-3.70177e-06
5.76652e-05
-5.67523e-06
5.74306e-05
-8.36059e-06
5.68951e-05
-1.14726e-05
5.61654e-05
-1.43974e-05
5.543e-05
-1.63851e-05
5.48584e-05
-1.69438e-05
5.45138e-05
-1.61438e-05
5.43769e-05
-1.43756e-05
5.43818e-05
-1.21303e-05
5.44552e-05
-9.79286e-06
5.45357e-05
-7.61558e-06
5.45613e-05
-5.76979e-06
5.45038e-05
-4.21959e-06
5.42985e-05
-3.13476e-06
5.40134e-05
-2.15932e-06
5.35669e-05
-1.90504e-06
-1.39598e-06
7.7305e-05
-1.8967e-06
7.7489e-05
-2.6839e-06
7.76188e-05
-3.83161e-06
7.75151e-05
-5.57156e-06
7.70786e-05
-7.92409e-06
7.6273e-05
-1.06669e-05
7.51936e-05
-1.3318e-05
7.40502e-05
-1.52417e-05
7.3061e-05
-1.59545e-05
7.234e-05
-1.54229e-05
7.19006e-05
-1.39362e-05
7.16886e-05
-1.19184e-05
7.16263e-05
-9.73054e-06
7.16502e-05
-7.63946e-06
7.16944e-05
-5.814e-06
7.17494e-05
-4.27458e-06
7.17387e-05
-3.12408e-06
7.17161e-05
-2.13672e-06
7.14918e-05
-1.68073e-06
-1.14045e-06
0.000101928
-2.02235e-06
0.000102011
-2.76646e-06
0.00010199
-3.81116e-06
0.000101709
-5.29079e-06
0.000101041
-7.25532e-06
9.99368e-05
-9.56304e-06
9.84819e-05
-1.18632e-05
9.6897e-05
-1.36568e-05
9.54446e-05
-1.45021e-05
9.42939e-05
-1.42722e-05
9.34984e-05
-1.31407e-05
9.30164e-05
-1.14364e-05
9.2771e-05
-9.48516e-06
9.2675e-05
-7.54346e-06
9.2663e-05
-5.80201e-06
9.2691e-05
-4.30256e-06
9.27312e-05
-3.16429e-06
9.2788e-05
-2.1935e-06
9.28249e-05
-1.71763e-06
-1.20942e-06
0.000131133
0.000131099
0.000130921
0.000130476
0.000129638
0.000128353
0.000126691
0.000124858
0.000123122
0.000121684
0.00012063
0.00011994
0.000119543
0.000119345
0.000119272
0.000119263
0.000119289
0.000119337
0.000119386
5.75973e-08
-5.75092e-08
-3.69904e-08
9.46259e-08
-3.31003e-07
2.94022e-07
-5.26016e-07
1.95009e-07
-6.07694e-07
8.16745e-08
-6.0045e-07
-7.25164e-09
-4.8399e-07
-1.16466e-07
-3.00934e-07
-1.83063e-07
-1.01965e-07
-1.98975e-07
6.86616e-08
-1.70628e-07
1.99142e-07
-1.30479e-07
3.16362e-07
-1.17221e-07
4.27093e-07
-1.10736e-07
5.1318e-07
-8.60897e-08
5.80931e-07
-6.77528e-08
6.33409e-07
-5.24805e-08
6.75844e-07
-4.24266e-08
7.07909e-07
-3.20674e-08
7.38664e-07
-3.0756e-08
-2.24426e-08
-3.11231e-08
-2.63736e-08
-3.59848e-07
4.2343e-07
-8.30032e-07
7.64216e-07
-1.06961e-06
4.34583e-07
-1.10542e-06
1.17491e-07
-9.97558e-07
-1.15123e-07
-7.57414e-07
-3.56622e-07
-4.32869e-07
-5.07622e-07
-8.25294e-08
-5.49321e-07
2.42709e-07
-4.95866e-07
5.16075e-07
-4.0384e-07
7.31155e-07
-3.32295e-07
8.94581e-07
-2.74157e-07
1.02151e-06
-2.13016e-07
1.12043e-06
-1.66673e-07
1.19644e-06
-1.28487e-07
1.25836e-06
-1.0435e-07
1.30534e-06
-7.90589e-08
1.35056e-06
-7.59712e-08
-5.46664e-08
-1.40243e-07
1.13791e-07
-6.52639e-07
9.35784e-07
-1.16552e-06
1.27712e-06
-1.37377e-06
6.42834e-07
-1.37004e-06
1.13763e-07
-1.20588e-06
-2.7928e-07
-8.88665e-07
-6.73841e-07
-4.70668e-07
-9.2562e-07
-2.15216e-08
-9.98468e-07
4.01504e-07
-9.1889e-07
7.64735e-07
-7.67069e-07
1.05386e-06
-6.21422e-07
1.27261e-06
-4.929e-07
1.44159e-06
-3.81991e-07
1.57296e-06
-2.98041e-07
1.67386e-06
-2.29389e-07
1.75602e-06
-1.86513e-07
1.81822e-06
-1.41252e-07
1.87804e-06
-1.35796e-07
-9.69117e-08
-2.61694e-07
3.75425e-07
-9.18286e-07
1.59237e-06
-1.45236e-06
1.81119e-06
-1.63112e-06
8.21602e-07
-1.60491e-06
8.75558e-08
-1.39015e-06
-4.94038e-07
-9.95767e-07
-1.06823e-06
-4.80861e-07
-1.44053e-06
7.11559e-08
-1.55049e-06
5.9354e-07
-1.44128e-06
1.04611e-06
-1.21964e-06
1.41336e-06
-9.88678e-07
1.69681e-06
-7.76345e-07
1.91589e-06
-6.01069e-07
2.0865e-06
-4.6866e-07
2.21785e-06
-3.60736e-07
2.32481e-06
-2.93469e-07
2.40562e-06
-2.22068e-07
2.48326e-06
-2.13437e-07
-1.51555e-07
-4.07363e-07
7.82708e-07
-1.17984e-06
2.36488e-06
-1.71591e-06
2.34726e-06
-1.87483e-06
9.80521e-07
-1.82963e-06
4.23597e-08
-1.5587e-06
-7.64977e-07
-1.07682e-06
-1.55011e-06
-4.51074e-07
-2.06628e-06
2.18617e-07
-2.22018e-06
8.53636e-07
-2.0763e-06
1.40641e-06
-1.7724e-06
1.86094e-06
-1.44321e-06
2.21773e-06
-1.13314e-06
2.49471e-06
-8.7805e-07
2.71116e-06
-6.8511e-07
2.87835e-06
-5.27928e-07
3.01472e-06
-4.29843e-07
3.11782e-06
-3.25169e-07
3.21683e-06
-3.12442e-07
-2.21104e-07
-5.74446e-07
1.35702e-06
-1.43496e-06
3.22542e-06
-1.95496e-06
2.86726e-06
-2.1026e-06
1.12816e-06
-2.03559e-06
-2.46494e-08
-1.69877e-06
-1.1018e-06
-1.11465e-06
-2.13425e-06
-3.59541e-07
-2.82139e-06
4.47058e-07
-3.02678e-06
1.21234e-06
-2.84158e-06
1.88009e-06
-2.44015e-06
2.4334e-06
-1.99652e-06
2.87326e-06
-1.57299e-06
3.21697e-06
-1.22177e-06
3.48679e-06
-9.54922e-07
3.69604e-06
-7.37182e-07
3.86718e-06
-6.00983e-07
3.99682e-06
-4.54808e-07
4.12141e-06
-4.37034e-07
-3.08498e-07
-7.50581e-07
2.10743e-06
-1.66883e-06
4.14368e-06
-2.15892e-06
3.35737e-06
-2.29938e-06
1.26862e-06
-2.20192e-06
-1.22106e-07
-1.78505e-06
-1.51868e-06
-1.07943e-06
-2.83987e-06
-1.72434e-07
-3.7284e-06
7.93745e-07
-3.99296e-06
1.70983e-06
-3.75767e-06
2.50972e-06
-3.24004e-06
3.17506e-06
-2.66186e-06
3.70864e-06
-2.10657e-06
4.12846e-06
-1.64159e-06
4.4597e-06
-1.28617e-06
4.71776e-06
-9.95243e-07
4.92957e-06
-8.12785e-07
5.09047e-06
-6.15717e-07
5.24541e-06
-5.91974e-07
-4.17079e-07
-9.15596e-07
3.02288e-06
-1.85511e-06
5.08321e-06
-2.30376e-06
3.80604e-06
-2.43517e-06
1.40002e-06
-2.29235e-06
-2.64928e-07
-1.77528e-06
-2.03576e-06
-9.23562e-07
-3.69161e-06
1.61841e-07
-4.81382e-06
1.31292e-06
-5.14406e-06
2.40226e-06
-4.84701e-06
3.35281e-06
-4.19058e-06
4.14447e-06
-3.45353e-06
4.78297e-06
-2.74507e-06
5.28831e-06
-2.14693e-06
5.68911e-06
-1.68697e-06
6.00284e-06
-1.30898e-06
6.26139e-06
-1.07133e-06
6.45851e-06
-8.12841e-07
6.64884e-06
-7.82309e-07
-5.5045e-07
-1.04275e-06
4.0657e-06
-1.95109e-06
5.9916e-06
-2.33953e-06
4.1945e-06
-2.45149e-06
1.51197e-06
-2.24048e-06
-4.75939e-07
-1.59623e-06
-2.68003e-06
-5.68622e-07
-4.71924e-06
7.24335e-07
-6.1068e-06
2.08665e-06
-6.50638e-06
3.37161e-06
-6.13199e-06
4.49097e-06
-5.30995e-06
5.4229e-06
-4.38547e-06
6.17693e-06
-3.49909e-06
6.77639e-06
-2.74639e-06
7.25402e-06
-2.1646e-06
7.6296e-06
-1.68456e-06
7.94039e-06
-1.38213e-06
8.17831e-06
-1.05076e-06
8.40878e-06
-1.01278e-06
-7.12027e-07
-1.11273e-06
5.17857e-06
-1.89041e-06
6.76931e-06
-2.1775e-06
4.48162e-06
-2.24037e-06
1.57482e-06
-1.92263e-06
-7.93674e-07
-1.11354e-06
-3.48913e-06
1.25005e-07
-5.95781e-06
1.6539e-06
-7.63571e-06
3.24989e-06
-8.10237e-06
4.74726e-06
-7.62937e-06
6.04824e-06
-6.61093e-06
7.12983e-06
-5.46706e-06
8.00618e-06
-4.37544e-06
8.70496e-06
-3.44517e-06
9.26369e-06
-2.72334e-06
9.70474e-06
-2.1256e-06
1.00711e-05
-1.74847e-06
1.03527e-05
-1.33242e-06
1.06266e-05
-1.28665e-06
-9.04217e-07
-1.03813e-06
6.21675e-06
-1.56588e-06
7.29712e-06
-1.66987e-06
4.58562e-06
-1.61327e-06
1.51819e-06
-1.11919e-06
-1.28774e-06
-8.78108e-08
-4.52053e-06
1.40435e-06
-7.44999e-06
3.19156e-06
-9.42294e-06
5.03038e-06
-9.94119e-06
6.74063e-06
-9.33962e-06
8.22054e-06
-8.09084e-06
9.44791e-06
-6.69442e-06
1.04425e-05
-5.36998e-06
1.12368e-05
-4.23949e-06
1.18734e-05
-3.35996e-06
1.23774e-05
-2.62962e-06
1.27974e-05
-2.16845e-06
1.31218e-05
-1.65677e-06
1.34385e-05
-1.60337e-06
-1.12695e-06
-8.2066e-07
7.03743e-06
-8.07517e-07
7.2841e-06
-5.69227e-07
4.34736e-06
-2.42008e-07
1.19093e-06
5.53169e-07
-2.0829e-06
1.89653e-06
-5.86392e-06
3.68998e-06
-9.24346e-06
5.74072e-06
-1.14737e-05
7.8009e-06
-1.20014e-05
9.6899e-06
-1.12286e-05
1.1314e-05
-9.71492e-06
1.26561e-05
-8.03656e-06
1.37425e-05
-6.45637e-06
1.46105e-05
-5.10742e-06
1.53068e-05
-4.05633e-06
1.58593e-05
-3.18204e-06
1.63207e-05
-2.62986e-06
1.66787e-05
-2.01481e-06
1.70299e-05
-1.95455e-06
-1.37498e-06
-1.98392e-08
7.05725e-06
6.64733e-07
6.59982e-06
1.57537e-06
3.4368e-06
2.47979e-06
2.86469e-07
3.79305e-06
-3.39615e-06
5.56808e-06
-7.63897e-06
7.69451e-06
-1.13699e-05
9.9641e-06
-1.37433e-05
1.21576e-05
-1.41949e-05
1.41236e-05
-1.31946e-05
1.57974e-05
-1.13887e-05
1.71742e-05
-9.41334e-06
1.82867e-05
-7.56884e-06
1.91746e-05
-5.99534e-06
1.98867e-05
-4.76839e-06
2.04518e-05
-3.74721e-06
2.09246e-05
-3.10259e-06
2.12933e-05
-2.38354e-06
2.16566e-05
-2.31779e-06
-1.63379e-06
4.8663e-07
6.57059e-06
3.56429e-06
3.52231e-06
5.83865e-06
1.1625e-06
7.83031e-06
-1.7052e-06
9.9488e-06
-5.51462e-06
1.22365e-05
-9.92669e-06
1.46193e-05
-1.37528e-05
1.69226e-05
-1.60467e-05
1.902e-05
-1.62923e-05
2.08373e-05
-1.50119e-05
2.23651e-05
-1.29165e-05
2.36165e-05
-1.06647e-05
2.46266e-05
-8.57894e-06
2.54312e-05
-6.7999e-06
2.60745e-05
-5.41165e-06
2.65836e-05
-4.25635e-06
2.70091e-05
-3.52812e-06
2.73428e-05
-2.71723e-06
2.76729e-05
-2.64784e-06
-1.8739e-06
7.7196e-06
1.23172e-05
1.59125e-05
1.90846e-05
2.18451e-05
2.42495e-05
2.63482e-05
2.81191e-05
2.96123e-05
3.08696e-05
3.19289e-05
3.28031e-05
3.35102e-05
3.40688e-05
3.45081e-05
3.48491e-05
3.51303e-05
3.535e-05
3.55701e-05
)
;

boundaryField
{
    inlet
    {
        type            calculated;
        value           nonuniform List<scalar> 
20
(
-1.23982e-05
-1.60129e-05
-2.06814e-05
-2.67111e-05
-3.44987e-05
-4.45568e-05
-5.75474e-05
-7.43253e-05
-9.59948e-05
-0.000123982
-0.000371946
-0.000287984
-0.000222976
-0.000172642
-0.00013367
-0.000103496
-8.01334e-05
-6.20443e-05
-4.80387e-05
-3.71946e-05
)
;
    }
    outlet
    {
        type            calculated;
        value           nonuniform List<scalar> 
35
(
7.61122e-07
1.38277e-06
1.92028e-06
2.5379e-06
3.28638e-06
4.2088e-06
5.35399e-06
6.78221e-06
8.57036e-06
1.08188e-05
1.36612e-05
1.72779e-05
2.19154e-05
2.7913e-05
3.57384e-05
9.72801e-06
1.27674e-05
1.68243e-05
2.22743e-05
2.96418e-05
3.96498e-05
5.32303e-05
7.12362e-05
9.28939e-05
0.00011949
0.00035907
0.000277962
0.000215239
0.000166222
0.000125137
9.02922e-05
6.4329e-05
4.55192e-05
3.16761e-05
2.15232e-05
)
;
    }
    frontAndBack
    {
        type            empty;
        value           nonuniform 0();
    }
    noslipwall
    {
        type            calculated;
        value           uniform 0;
    }
}


// ************************************************************************* //
