/*--------------------------------*- C++ -*----------------------------------*\
  =========                 |
  \\      /  F ield         | OpenFOAM: The Open Source CFD Toolbox
   \\    /   O peration     | Website:  https://openfoam.org
    \\  /    A nd           | Version:  7
     \\/     M anipulation  |
\*---------------------------------------------------------------------------*/
FoamFile
{
    version     2.0;
    format      ascii;
    class       volVectorField;
    location    "486";
    object      U;
}
// * * * * * * * * * * * * * * * * * * * * * * * * * * * * * * * * * * * * * //

dimensions      [0 1 -1 0 0 0 0];

internalField   nonuniform List<vector> 
900
(
(24.7579 0.0532137 0)
(21.4252 0.00438782 0)
(20.9974 0.000845963 0)
(20.7621 0.000660142 0)
(20.6843 0.000226307 0)
(20.6973 -0.000890873 0)
(20.8902 -0.00348859 0)
(21.1582 -0.00422598 0)
(21.448 -0.0178138 0)
(22.1247 -0.0463035 0)
(28.7583 0.031259 0)
(25.1949 0.0078409 0)
(24.6089 0.00262794 0)
(24.3095 0.00176982 0)
(24.196 0.000503153 0)
(24.1913 -0.00326806 0)
(24.3896 -0.0105805 0)
(24.6269 -0.0169519 0)
(25.0385 -0.0617448 0)
(25.4163 -0.00665445 0)
(31.9091 0.0562593 0)
(28.2982 0.0155198 0)
(27.4776 0.00580467 0)
(27.0753 0.00393544 0)
(26.9105 0.00151219 0)
(26.8765 -0.00570024 0)
(27.0557 -0.0176969 0)
(27.2777 -0.0387603 0)
(27.678 -0.0813789 0)
(28.0369 -0.116143 0)
(34.2944 0.0793299 0)
(30.9735 0.0260266 0)
(29.9243 0.0112367 0)
(29.4007 0.00772414 0)
(29.1728 0.003603 0)
(29.1039 -0.00791449 0)
(29.2473 -0.0272841 0)
(29.4593 -0.0591508 0)
(29.8103 -0.129205 0)
(30.1618 -0.185858 0)
(36.0358 0.0951186 0)
(33.4597 0.0394894 0)
(32.2678 0.0201928 0)
(31.6225 0.0142545 0)
(31.3195 0.00756966 0)
(31.2132 -0.00940973 0)
(31.3113 -0.0382737 0)
(31.5106 -0.0853712 0)
(31.8118 -0.180972 0)
(32.1333 -0.262441 0)
(37.116 0.10229 0)
(35.7156 0.054735 0)
(34.5753 0.0334497 0)
(33.8454 0.0248088 0)
(33.4682 0.0145019 0)
(33.3239 -0.00915249 0)
(33.3753 -0.0502296 0)
(33.5523 -0.115903 0)
(33.8096 -0.236195 0)
(34.0859 -0.350859 0)
(36.9311 0.0943622 0)
(37.2822 0.0652813 0)
(36.6991 0.0499925 0)
(36.0304 0.0410075 0)
(35.6203 0.0264948 0)
(35.4501 -0.00537386 0)
(35.4656 -0.061974 0)
(35.6132 -0.149901 0)
(35.8289 -0.296219 0)
(36.0528 -0.445344 0)
(36.6759 0.0867552 0)
(37.4522 0.0618208 0)
(37.8224 0.0563135 0)
(37.7201 0.0539299 0)
(37.5338 0.0403045 0)
(37.4396 0.00274761 0)
(37.46 -0.0691382 0)
(37.5816 -0.180659 0)
(37.7495 -0.349903 0)
(37.9099 -0.527176 0)
(36.6769 0.0789387 0)
(37.3701 0.0542539 0)
(37.854 0.0500343 0)
(38.0442 0.0503191 0)
(38.1391 0.0373422 0)
(38.2389 -0.00514201 0)
(38.3655 -0.0914512 0)
(38.5226 -0.22518 0)
(38.6774 -0.40969 0)
(38.7949 -0.599874 0)
(36.68 0.0670136 0)
(37.37 0.0449353 0)
(37.8468 0.0413232 0)
(38.0405 0.0407593 0)
(38.1538 0.0250865 0)
(38.2692 -0.0250362 0)
(38.3966 -0.126619 0)
(38.5289 -0.280993 0)
(38.6411 -0.474892 0)
(38.7094 -0.665131 0)
(36.6794 0.039476 0)
(37.3673 0.0247615 0)
(37.8451 0.0222988 0)
(38.0367 0.0204523 0)
(38.143 0.00168124 0)
(38.2376 -0.0572962 0)
(38.3219 -0.171823 0)
(38.3811 -0.332489 0)
(38.4059 -0.509341 0)
(38.3983 -0.667192 0)
(36.679 0.00282214 0)
(37.366 -0.00148466 0)
(37.844 -0.00274895 0)
(38.0333 -0.00602801 0)
(38.1287 -0.0265913 0)
(38.1933 -0.0887453 0)
(38.2234 -0.201546 0)
(38.2157 -0.342718 0)
(38.1822 -0.477886 0)
(38.1377 -0.585946 0)
(36.6792 -0.0254546 0)
(37.3666 -0.0219354 0)
(37.8443 -0.0223865 0)
(38.032 -0.0262911 0)
(38.1195 -0.0449448 0)
(38.1641 -0.0999242 0)
(38.1628 -0.194453 0)
(38.1216 -0.305189 0)
(38.0615 -0.405494 0)
(38.0005 -0.483116 0)
(36.6795 -0.0473219 0)
(37.3678 -0.0377287 0)
(37.8452 -0.0378068 0)
(38.0322 -0.0418839 0)
(38.115 -0.0569994 0)
(38.1476 -0.101619 0)
(38.1276 -0.177427 0)
(38.0672 -0.264594 0)
(37.9925 -0.341869 0)
(37.9235 -0.400118 0)
(36.6783 -0.0647651 0)
(37.3721 -0.049647 0)
(37.8516 -0.049203 0)
(38.0308 -0.0536315 0)
(38.0965 -0.0654621 0)
(38.1044 -0.100364 0)
(38.0552 -0.160116 0)
(37.9667 -0.22834 0)
(37.8703 -0.287813 0)
(37.7868 -0.331911 0)
(36.7023 -0.0788818 0)
(37.4047 -0.0613574 0)
(37.7018 -0.057825 0)
(37.6311 -0.0590664 0)
(37.4782 -0.065183 0)
(37.3181 -0.0890674 0)
(37.1415 -0.132419 0)
(36.9584 -0.182288 0)
(36.7944 -0.225511 0)
(36.6648 -0.25741 0)
(36.8858 -0.0878748 0)
(36.6927 -0.0636446 0)
(36.1489 -0.0505369 0)
(35.6185 -0.0450793 0)
(35.2468 -0.0453154 0)
(34.9774 -0.0597922 0)
(34.7365 -0.0889918 0)
(34.5098 -0.12302 0)
(34.316 -0.152298 0)
(34.1664 -0.173637 0)
(36.0613 -0.0659073 0)
(34.3185 -0.0433469 0)
(33.4116 -0.0311887 0)
(32.8343 -0.0263334 0)
(32.4683 -0.0262532 0)
(32.2057 -0.0357444 0)
(31.9649 -0.0547821 0)
(31.7337 -0.0767343 0)
(31.534 -0.0954533 0)
(31.3795 -0.109021 0)
(33.902 -0.0349306 0)
(31.117 -0.0216139 0)
(30.1368 -0.0155972 0)
(29.585 -0.0131788 0)
(29.249 -0.0131595 0)
(29.0095 -0.0183562 0)
(28.7844 -0.0285484 0)
(28.5619 -0.0402411 0)
(28.3671 -0.0500982 0)
(28.2155 -0.0571831 0)
(30.6724 -0.143166 0)
(27.5343 -0.0247955 0)
(26.5956 -0.00519705 0)
(26.0786 -0.00375251 0)
(25.7665 -0.003926 0)
(25.5398 -0.00584231 0)
(25.3148 -0.00982727 0)
(25.0863 -0.0139054 0)
(24.8846 -0.0170771 0)
(24.7271 -0.0192159 0)
(38.3751 -0.790802 0)
(38.3397 -0.908709 0)
(38.2808 -1.0497 0)
(38.186 -1.2133 0)
(38.0389 -1.39201 0)
(37.8229 -1.56506 0)
(37.5304 -1.69967 0)
(37.1717 -1.76011 0)
(36.7777 -1.72213 0)
(36.3933 -1.58644 0)
(36.0585 -1.37838 0)
(35.7965 -1.13373 0)
(35.6091 -0.887413 0)
(35.4873 -0.662627 0)
(35.4125 -0.476429 0)
(35.3739 -0.328205 0)
(35.3521 -0.223757 0)
(35.3512 -0.145137 0)
(35.3483 -0.104214 0)
(35.37 -0.0733834 0)
(38.0947 -0.664591 0)
(38.0474 -0.735768 0)
(37.9826 -0.81765 0)
(37.8934 -0.909297 0)
(37.771 -1.00718 0)
(37.6064 -1.1031 0)
(37.3939 -1.18334 0)
(37.1347 -1.23014 0)
(36.8415 -1.22709 0)
(36.5369 -1.16555 0)
(36.2476 -1.05064 0)
(35.9951 -0.897537 0)
(35.7906 -0.728764 0)
(35.6356 -0.562162 0)
(35.5245 -0.416215 0)
(35.4499 -0.293769 0)
(35.4022 -0.205296 0)
(35.3764 -0.136785 0)
(35.3636 -0.101272 0)
(35.3645 -0.0755957 0)
(37.9488 -0.538588 0)
(37.8967 -0.588036 0)
(37.8302 -0.644109 0)
(37.7444 -0.706102 0)
(37.6335 -0.77185 0)
(37.492 -0.836579 0)
(37.3158 -0.892373 0)
(37.1044 -0.928164 0)
(36.8634 -0.93264 0)
(36.6053 -0.897408 0)
(36.348 -0.822724 0)
(36.1086 -0.715859 0)
(35.9011 -0.5925 0)
(35.7311 -0.465406 0)
(35.6011 -0.351456 0)
(35.5056 -0.25267 0)
(35.4425 -0.18165 0)
(35.4009 -0.124325 0)
(35.3817 -0.0969369 0)
(35.3695 -0.0753711 0)
(37.8684 -0.44085 0)
(37.8152 -0.476571 0)
(37.7493 -0.516591 0)
(37.6666 -0.560357 0)
(37.5627 -0.606358 0)
(37.4334 -0.651424 0)
(37.2753 -0.690565 0)
(37.0868 -0.71655 0)
(36.8711 -0.721774 0)
(36.6354 -0.699429 0)
(36.3934 -0.648416 0)
(36.1583 -0.571727 0)
(35.946 -0.480562 0)
(35.7616 -0.38326 0)
(35.6158 -0.294943 0)
(35.498 -0.215662 0)
(35.4211 -0.159703 0)
(35.3534 -0.111646 0)
(35.3292 -0.0913496 0)
(35.2776 -0.0726497 0)
(37.7223 -0.362476 0)
(37.6611 -0.389096 0)
(37.5864 -0.418732 0)
(37.4943 -0.450994 0)
(37.3806 -0.484812 0)
(37.241 -0.51799 0)
(37.0721 -0.547084 0)
(36.871 -0.567018 0)
(36.6396 -0.572203 0)
(36.3812 -0.557209 0)
(36.1085 -0.520338 0)
(35.8301 -0.462956 0)
(35.5669 -0.392954 0)
(35.3172 -0.31674 0)
(35.1086 -0.246334 0)
(34.9072 -0.182286 0)
(34.7691 -0.136319 0)
(34.5884 -0.0962816 0)
(34.5233 -0.078837 0)
(34.2847 -0.0611616 0)
(36.5692 -0.279426 0)
(36.4812 -0.298502 0)
(36.376 -0.319611 0)
(36.2494 -0.34246 0)
(36.0967 -0.366232 0)
(35.913 -0.38935 0)
(35.6943 -0.409286 0)
(35.4372 -0.422444 0)
(35.1423 -0.42465 0)
(34.8126 -0.412031 0)
(34.4601 -0.382906 0)
(34.0947 -0.338479 0)
(33.7394 -0.284021 0)
(33.3966 -0.225377 0)
(33.0966 -0.170254 0)
(32.8087 -0.121669 0)
(32.5929 -0.0847965 0)
(32.3387 -0.0562404 0)
(32.2208 -0.0400415 0)
(31.9158 -0.0292312 0)
(34.0575 -0.18825 0)
(33.9579 -0.200925 0)
(33.8398 -0.215027 0)
(33.6987 -0.230297 0)
(33.5298 -0.246134 0)
(33.3284 -0.261448 0)
(33.0905 -0.274484 0)
(32.8125 -0.282806 0)
(32.4954 -0.283519 0)
(32.1428 -0.273946 0)
(31.7671 -0.252879 0)
(31.3806 -0.221319 0)
(31.007 -0.182718 0)
(30.6536 -0.141683 0)
(30.3488 -0.102977 0)
(30.0712 -0.069929 0)
(29.8671 -0.0440548 0)
(29.6527 -0.0265935 0)
(29.5526 -0.014029 0)
(29.3335 -0.0105615 0)
(31.2669 -0.118307 0)
(31.164 -0.126376 0)
(31.0421 -0.135349 0)
(30.8966 -0.145038 0)
(30.7225 -0.154993 0)
(30.5151 -0.164554 0)
(30.2703 -0.172537 0)
(29.9848 -0.177417 0)
(29.6596 -0.177385 0)
(29.2989 -0.170741 0)
(28.9157 -0.156592 0)
(28.5246 -0.135713 0)
(28.1503 -0.110265 0)
(27.805 -0.0834834 0)
(27.5154 -0.058164 0)
(27.2694 -0.0371906 0)
(27.0993 -0.0204583 0)
(26.948 -0.0104773 0)
(26.8846 -0.00195433 0)
(26.7755 -0.0020493 0)
(28.1048 -0.0619964 0)
(28.0035 -0.0661467 0)
(27.8834 -0.0708328 0)
(27.7399 -0.0758279 0)
(27.5679 -0.0810304 0)
(27.363 -0.0859654 0)
(27.1208 -0.0899725 0)
(26.8386 -0.0922008 0)
(26.5169 -0.0915621 0)
(26.1611 -0.0874378 0)
(25.7851 -0.079221 0)
(25.4054 -0.0674762 0)
(25.0482 -0.0533735 0)
(24.7294 -0.0388565 0)
(24.474 -0.0254644 0)
(24.2756 -0.0147921 0)
(24.1532 -0.00648554 0)
(24.0688 -0.00226971 0)
(24.0473 0.00196565 0)
(24.031 0.00069459 0)
(24.6123 -0.0206238 0)
(24.5075 -0.0219393 0)
(24.3836 -0.023452 0)
(24.2357 -0.0251487 0)
(24.0597 -0.0265152 0)
(23.8505 -0.0279303 0)
(23.606 -0.0289539 0)
(23.324 -0.0294076 0)
(23.0083 -0.0289963 0)
(22.6665 -0.0268781 0)
(22.3154 -0.0235744 0)
(21.974 -0.01917 0)
(21.6683 -0.0142876 0)
(21.4122 -0.00962747 0)
(21.225 -0.00532074 0)
(21.096 -0.00239967 0)
(21.0344 0.000154684 0)
(21.0078 0.000860292 0)
(21.0192 0.00198726 0)
(21.0501 0.000898069 0)
(21.9939 -0.559916 0)
(21.157 -0.44814 0)
(21.3079 -0.796995 0)
(22.0551 -1.41801 0)
(22.9508 -2.13654 0)
(23.9038 -2.83229 0)
(24.7102 -3.24973 0)
(25.3476 -3.27146 0)
(25.8745 -2.93207 0)
(26.379 -2.41156 0)
(26.8638 -1.8633 0)
(27.3 -1.3833 0)
(27.6655 -1.00023 0)
(27.9464 -0.711783 0)
(28.1618 -0.50785 0)
(28.3112 -0.357741 0)
(28.4244 -0.265595 0)
(28.5145 -0.183473 0)
(28.5674 -0.160544 0)
(28.6854 -0.102415 0)
(25.9442 -0.368133 0)
(25.8365 -0.383496 0)
(25.7371 -0.817085 0)
(25.8174 -1.48544 0)
(26.1011 -2.21326 0)
(26.5352 -2.89833 0)
(26.9032 -3.29774 0)
(27.1746 -3.30444 0)
(27.4142 -2.95749 0)
(27.6989 -2.43338 0)
(28.0162 -1.88185 0)
(28.3203 -1.39799 0)
(28.5777 -1.01093 0)
(28.7667 -0.719094 0)
(28.9042 -0.512581 0)
(28.984 -0.36069 0)
(29.0404 -0.267583 0)
(29.0737 -0.184701 0)
(29.0903 -0.161896 0)
(29.1533 -0.103399 0)
(28.4537 -0.420706 0)
(28.6944 -0.417708 0)
(29.0441 -0.806144 0)
(29.2556 -1.47928 0)
(29.2923 -2.22139 0)
(29.2946 -2.90981 0)
(29.2316 -3.30706 0)
(29.1407 -3.31285 0)
(29.1067 -2.96935 0)
(29.1902 -2.44843 0)
(29.3571 -1.8969 0)
(29.5386 -1.4103 0)
(29.69 -1.01956 0)
(29.7828 -0.724441 0)
(29.8339 -0.515419 0)
(29.833 -0.361923 0)
(29.8218 -0.268031 0)
(29.7851 -0.184673 0)
(29.7564 -0.162241 0)
(29.7498 -0.103871 0)
(30.5026 -0.452486 0)
(30.7546 -0.512807 0)
(31.1635 -0.875399 0)
(31.5102 -1.50903 0)
(31.6262 -2.21895 0)
(31.5338 -2.88379 0)
(31.2695 -3.27683 0)
(30.9629 -3.29192 0)
(30.755 -2.96438 0)
(30.7123 -2.45527 0)
(30.7913 -1.90777 0)
(30.9013 -1.41906 0)
(30.9825 -1.02415 0)
(30.9981 -0.725502 0)
(30.9693 -0.514132 0)
(30.8848 -0.359527 0)
(30.7991 -0.265284 0)
(30.6804 -0.182111 0)
(30.5983 -0.160397 0)
(30.5021 -0.103203 0)
(32.4223 -0.507524 0)
(32.6449 -0.630275 0)
(32.9751 -0.968378 0)
(33.2638 -1.55458 0)
(33.3467 -2.2196 0)
(33.205 -2.84184 0)
(32.8769 -3.22039 0)
(32.4957 -3.24672 0)
(32.2144 -2.94396 0)
(32.1115 -2.45558 0)
(32.1576 -1.91803 0)
(32.2627 -1.42851 0)
(32.3486 -1.02722 0)
(32.3517 -0.722046 0)
(32.2862 -0.506664 0)
(32.1398 -0.350963 0)
(31.9879 -0.256845 0)
(31.7832 -0.175026 0)
(31.6459 -0.154379 0)
(31.4364 -0.10021 0)
(34.326 -0.5742 0)
(34.5135 -0.743187 0)
(34.7567 -1.06018 0)
(34.9613 -1.5897 0)
(34.9845 -2.20002 0)
(34.7916 -2.77309 0)
(34.4175 -3.1354 0)
(33.9806 -3.17726 0)
(33.6261 -2.90703 0)
(33.4396 -2.44765 0)
(33.4159 -1.92773 0)
(33.4882 -1.4428 0)
(33.5935 -1.03702 0)
(33.653 -0.722456 0)
(33.6455 -0.497213 0)
(33.5158 -0.335887 0)
(33.3486 -0.239939 0)
(33.0817 -0.160592 0)
(32.9055 -0.141048 0)
(32.5688 -0.0928841 0)
(36.2408 -0.651369 0)
(36.3863 -0.848398 0)
(36.5479 -1.14825 0)
(36.6693 -1.61436 0)
(36.6365 -2.15944 0)
(36.4027 -2.67512 0)
(35.9908 -3.01465 0)
(35.4967 -3.07176 0)
(35.0522 -2.83972 0)
(34.7495 -2.4183 0)
(34.6065 -1.92531 0)
(34.5795 -1.4534 0)
(34.6255 -1.05051 0)
(34.6814 -0.73216 0)
(34.7381 -0.498382 0)
(34.7152 -0.327746 0)
(34.6649 -0.22179 0)
(34.4449 -0.139501 0)
(34.2969 -0.115887 0)
(33.8679 -0.0777232 0)
(38.035 -0.721557 0)
(38.1245 -0.926606 0)
(38.2013 -1.20717 0)
(38.2281 -1.60629 0)
(38.1202 -2.07578 0)
(37.8259 -2.52444 0)
(37.3548 -2.8322 0)
(36.7828 -2.90202 0)
(36.2282 -2.71389 0)
(35.7904 -2.34205 0)
(35.5073 -1.88895 0)
(35.3575 -1.44249 0)
(35.3073 -1.05236 0)
(35.3036 -0.738928 0)
(35.3396 -0.503782 0)
(35.3504 -0.331635 0)
(35.3987 -0.218103 0)
(35.337 -0.133411 0)
(35.3757 -0.0967553 0)
(35.109 -0.0600137 0)
(38.8705 -0.780053 0)
(38.9135 -0.971658 0)
(38.927 -1.22097 0)
(38.8821 -1.54894 0)
(38.719 -1.93162 0)
(38.391 -2.30168 0)
(37.8979 -2.56663 0)
(37.2975 -2.64426 0)
(36.6903 -2.5056 0)
(36.1747 -2.19751 0)
(35.7991 -1.80191 0)
(35.5634 -1.3968 0)
(35.435 -1.03192 0)
(35.3815 -0.731666 0)
(35.3673 -0.501811 0)
(35.3772 -0.332116 0)
(35.3905 -0.217725 0)
(35.4123 -0.134131 0)
(35.4285 -0.0938998 0)
(35.4545 -0.0565109 0)
(38.7401 -0.827617 0)
(38.7438 -0.992724 0)
(38.7147 -1.19924 0)
(38.6304 -1.45287 0)
(38.4525 -1.74063 0)
(38.1466 -2.02013 0)
(37.709 -2.22837 0)
(37.1784 -2.30366 0)
(36.6296 -2.21491 0)
(36.1432 -1.98297 0)
(35.7682 -1.66384 0)
(35.5144 -1.31898 0)
(35.3612 -0.995101 0)
(35.2834 -0.718107 0)
(35.2488 -0.500162 0)
(35.245 -0.334913 0)
(35.2456 -0.222014 0)
(35.2654 -0.139085 0)
(35.269 -0.0975031 0)
(35.3076 -0.0631142 0)
(0.629195 -0.0802653 0)
(0.745678 -0.0157134 0)
(-2.14803 0.0411695 0)
(-5.06329 0.0295362 0)
(-6.36907 0.0136995 0)
(-6.88434 0.00443165 0)
(-6.16454 -0.00790964 0)
(-4.39139 -0.012769 0)
(-2.22027 -0.0112385 0)
(-0.117004 -0.00648992 0)
(1.5063 -0.00239199 0)
(2.75861 -0.00278174 0)
(4.15518 -0.00554774 0)
(5.24162 -0.00472684 0)
(6.0834 -0.00376336 0)
(6.77986 -0.00283969 0)
(7.28757 -0.00211643 0)
(7.75034 -0.00146828 0)
(8.00321 -0.00127974 0)
(8.47781 -0.000853732 0)
(0.677462 -0.00744279 0)
(-1.12765 0.0882664 0)
(-6.12585 0.17562 0)
(-9.56682 0.099565 0)
(-10.6162 0.0290588 0)
(-10.205 -0.0161354 0)
(-8.48296 -0.0546116 0)
(-5.66569 -0.0715181 0)
(-2.40016 -0.0698217 0)
(0.883464 -0.0559478 0)
(3.71205 -0.0398991 0)
(6.05466 -0.0289352 0)
(7.7954 -0.0214164 0)
(9.15742 -0.0150176 0)
(10.204 -0.0106436 0)
(11.0306 -0.00740046 0)
(11.6295 -0.00536422 0)
(12.197 -0.00365319 0)
(12.5025 -0.00315905 0)
(13.0706 -0.00205018 0)
(0.486824 0.0132678 0)
(-2.73211 0.248269 0)
(-7.84339 0.325562 0)
(-10.4489 0.159419 0)
(-11.0347 0.0311714 0)
(-10.3272 -0.045503 0)
(-8.38373 -0.107343 0)
(-5.35015 -0.134467 0)
(-1.87761 -0.130983 0)
(1.62965 -0.10793 0)
(4.71787 -0.0805802 0)
(7.32045 -0.0587079 0)
(9.25246 -0.0413072 0)
(10.7558 -0.0284692 0)
(11.9079 -0.019898 0)
(12.8143 -0.0136771 0)
(13.4746 -0.00988972 0)
(14.0957 -0.00670224 0)
(14.4308 -0.00577995 0)
(15.0486 -0.0037025 0)
(0.184524 0.0827723 0)
(-3.7156 0.43642 0)
(-8.48029 0.489245 0)
(-10.3148 0.2122 0)
(-10.7386 0.0276018 0)
(-9.90708 -0.0858575 0)
(-7.89245 -0.174947 0)
(-4.79744 -0.213572 0)
(-1.27324 -0.206715 0)
(2.28893 -0.171952 0)
(5.45073 -0.130238 0)
(8.13727 -0.0947475 0)
(10.2021 -0.066675 0)
(11.8094 -0.0462273 0)
(13.0433 -0.0323285 0)
(14.0191 -0.0222319 0)
(14.7332 -0.0161476 0)
(15.4011 -0.0109596 0)
(15.7607 -0.00943876 0)
(16.4229 -0.00601671 0)
(-0.175889 0.211089 0)
(-4.37423 0.682723 0)
(-8.50274 0.662366 0)
(-9.80336 0.260516 0)
(-10.1587 0.0189924 0)
(-9.24725 -0.140557 0)
(-7.20477 -0.263504 0)
(-4.09731 -0.31688 0)
(-0.569881 -0.305949 0)
(2.99437 -0.2564 0)
(6.17132 -0.196089 0)
(8.88299 -0.143173 0)
(11.0216 -0.100783 0)
(12.6953 -0.069997 0)
(13.9847 -0.0489319 0)
(15.0107 -0.0336718 0)
(15.7643 -0.0244804 0)
(16.4688 -0.0166051 0)
(16.8484 -0.0142857 0)
(17.5459 -0.00906648 0)
(-0.542816 0.403978 0)
(-4.76316 0.975772 0)
(-8.12185 0.831839 0)
(-9.07723 0.305116 0)
(-9.38347 0.0049632 0)
(-8.41119 -0.209625 0)
(-6.35971 -0.372029 0)
(-3.26387 -0.442932 0)
(0.241243 -0.426967 0)
(3.77857 -0.359617 0)
(6.93971 -0.277008 0)
(9.64254 -0.203296 0)
(11.8089 -0.143452 0)
(13.518 -0.0998573 0)
(14.8414 -0.0698972 0)
(15.9005 -0.0481824 0)
(16.6823 -0.0350786 0)
(17.4129 -0.0237812 0)
(17.809 -0.0204489 0)
(18.5334 -0.0129392 0)
(-0.864375 0.665184 0)
(-4.87722 1.29693 0)
(-7.46642 0.993519 0)
(-8.1985 0.346627 0)
(-8.44342 -0.0158412 0)
(-7.41546 -0.295478 0)
(-5.36094 -0.503504 0)
(-2.29037 -0.594847 0)
(1.17445 -0.572454 0)
(4.6632 -0.483637 0)
(7.78545 -0.374383 0)
(10.4536 -0.275981 0)
(12.6134 -0.195597 0)
(14.3305 -0.136581 0)
(15.668 -0.0958302 0)
(16.7439 -0.0662303 0)
(17.543 -0.0483058 0)
(18.2902 -0.0327595 0)
(18.6984 -0.0281736 0)
(19.4417 -0.0177841 0)
(-1.09611 0.993208 0)
(-4.71709 1.62884 0)
(-6.60531 1.14332 0)
(-7.18119 0.385711 0)
(-7.34219 -0.0459954 0)
(-6.25362 -0.401625 0)
(-4.19286 -0.662323 0)
(-1.15645 -0.777252 0)
(2.25171 -0.746537 0)
(5.67167 -0.631854 0)
(8.73288 -0.490678 0)
(11.3442 -0.362958 0)
(13.4698 -0.258446 0)
(15.1702 -0.181122 0)
(16.5022 -0.127453 0)
(17.579 -0.0883598 0)
(18.384 -0.0645991 0)
(19.1378 -0.0438579 0)
(19.553 -0.0377453 0)
(20.3067 -0.023789 0)
(-1.21241 1.37481 0)
(-4.30137 1.95653 0)
(-5.55055 1.27778 0)
(-5.99619 0.420948 0)
(-6.046 -0.0900735 0)
(-4.88612 -0.532756 0)
(-2.81362 -0.852893 0)
(0.178304 -0.993984 0)
(3.51029 -0.952442 0)
(6.8378 -0.806863 0)
(9.81321 -0.627912 0)
(12.3456 -0.46576 0)
(14.4119 -0.333102 0)
(16.0721 -0.234326 0)
(17.379 -0.165422 0)
(18.44 -0.115088 0)
(19.2381 -0.0843715 0)
(19.9871 -0.0573912 0)
(20.4032 -0.0494534 0)
(21.1565 -0.0311331 0)
(-1.21029 1.8002 0)
(-3.65122 2.2564 0)
(-4.28319 1.38748 0)
(-4.57979 0.446803 0)
(-4.47497 -0.156158 0)
(-3.22302 -0.696917 0)
(-1.13118 -1.08235 0)
(1.79949 -1.25046 0)
(5.0267 -1.19416 0)
(8.22713 -1.01144 0)
(11.0828 -0.788063 0)
(13.5065 -0.585655 0)
(15.4854 -0.42044 0)
(17.0792 -0.29685 0)
(18.3388 -0.210262 0)
(19.3644 -0.146804 0)
(20.1404 -0.10795 0)
(20.8698 -0.0736013 0)
(21.2793 -0.0635412 0)
(22.0179 -0.0399768 0)
(-1.02488 2.22182 0)
(-2.76825 2.49214 0)
(-2.7664 1.45307 0)
(-2.8374 0.449445 0)
(-2.50604 -0.258062 0)
(-1.1218 -0.905618 0)
(1.00455 -1.36008 0)
(3.8504 -1.55336 0)
(6.92909 -1.47611 0)
(9.94931 -1.24831 0)
(12.6335 -0.9728 0)
(14.9039 -0.723607 0)
(16.7567 -0.520966 0)
(18.2497 -0.368958 0)
(19.4337 -0.262143 0)
(20.3983 -0.18363 0)
(21.1328 -0.135438 0)
(21.8229 -0.0925911 0)
(22.2155 -0.0801168 0)
(22.9205 -0.0504019 0)
(-0.891647 2.6274 0)
(-1.64508 2.60069 0)
(-0.939578 1.4397 0)
(-0.627488 0.400383 0)
(0.0431029 -0.418875 0)
(1.6216 -1.17502 0)
(3.8005 -1.69527 0)
(6.52719 -1.90558 0)
(9.39077 -1.79798 0)
(12.1517 -1.51574 0)
(14.5884 -1.18034 0)
(16.6405 -0.878145 0)
(18.3123 -0.633492 0)
(19.6583 -0.449747 0)
(20.7278 -0.320338 0)
(21.5985 -0.225048 0)
(22.2655 -0.166445 0)
(22.8909 -0.114118 0)
(23.252 -0.0989957 0)
(23.8979 -0.0623077 0)
(-0.0052604 2.77048 0)
(-0.279537 2.49277 0)
(1.32949 1.28122 0)
(2.29818 0.24457 0)
(3.47153 -0.676796 0)
(5.31603 -1.52695 0)
(7.54853 -2.09634 0)
(10.0886 -2.30425 0)
(12.6301 -2.1517 0)
(15.014 -1.80443 0)
(17.0946 -1.40263 0)
(18.8376 -1.04303 0)
(20.2543 -0.753412 0)
(21.3922 -0.535834 0)
(22.2973 -0.382387 0)
(23.0315 -0.269273 0)
(23.5973 -0.19963 0)
(24.1258 -0.137277 0)
(24.4362 -0.119393 0)
(24.9891 -0.075257 0)
(-0.887103 2.8268 0)
(1.67378 1.88763 0)
(4.53141 0.812488 0)
(6.50494 -0.137019 0)
(8.34943 -1.0995 0)
(10.4747 -1.98999 0)
(12.6692 -2.56547 0)
(14.8637 -2.73544 0)
(16.8985 -2.51721 0)
(18.7312 -2.09445 0)
(20.3076 -1.62311 0)
(21.6221 -1.20552 0)
(22.69 -0.871283 0)
(23.5442 -0.620271 0)
(24.2243 -0.443153 0)
(24.7703 -0.312556 0)
(25.194 -0.232113 0)
(25.5861 -0.160079 0)
(25.8211 -0.139493 0)
(26.2393 -0.0882251 0)
(4.58665 1.54577 0)
(7.58976 0.626913 0)
(10.9825 -0.287996 0)
(13.7255 -1.03938 0)
(15.9411 -1.8242 0)
(17.9488 -2.58659 0)
(19.6754 -3.06849 0)
(21.135 -3.14533 0)
(22.3487 -2.84144 0)
(23.3981 -2.34239 0)
(24.3026 -1.809 0)
(25.0652 -1.34182 0)
(25.6904 -0.969941 0)
(26.1857 -0.690609 0)
(26.5783 -0.493419 0)
(26.8823 -0.348117 0)
(27.1194 -0.258682 0)
(27.3318 -0.178822 0)
(27.4617 -0.15599 0)
(27.6992 -0.099235 0)
)
;

boundaryField
{
    inlet
    {
        type            fixedValue;
        value           uniform (36.61 0 0);
    }
    outlet
    {
        type            zeroGradient;
    }
    frontAndBack
    {
        type            empty;
    }
    noslipwall
    {
        type            noSlip;
    }
}


// ************************************************************************* //
