/*--------------------------------*- C++ -*----------------------------------*\
  =========                 |
  \\      /  F ield         | OpenFOAM: The Open Source CFD Toolbox
   \\    /   O peration     | Website:  https://openfoam.org
    \\  /    A nd           | Version:  7
     \\/     M anipulation  |
\*---------------------------------------------------------------------------*/
FoamFile
{
    version     2.0;
    format      ascii;
    class       volVectorField;
    location    "486";
    object      U1;
}
// * * * * * * * * * * * * * * * * * * * * * * * * * * * * * * * * * * * * * //

dimensions      [0 1 -1 0 0 0 0];

internalField   nonuniform List<vector> 
900
(
(26.7594 0.0570893 0)
(23.2113 0.00473127 0)
(22.7491 0.000919964 0)
(22.4955 0.000701854 0)
(22.4095 0.000223168 0)
(22.4231 -0.0009317 0)
(22.6236 -0.00406856 0)
(22.9152 -0.00442659 0)
(23.2113 -0.0189388 0)
(23.9531 -0.0497222 0)
(30.9868 0.0328839 0)
(27.2011 0.00834915 0)
(26.5705 0.00283279 0)
(26.2482 0.00191601 0)
(26.1264 0.000557338 0)
(26.1213 -0.00339656 0)
(26.3292 -0.0112736 0)
(26.5868 -0.0177624 0)
(27.0223 -0.0664364 0)
(27.4278 -0.006345 0)
(34.3216 0.0593375 0)
(30.4923 0.01653 0)
(29.6136 0.00623959 0)
(29.1825 0.00424223 0)
(29.0064 0.00164182 0)
(28.9698 -0.00595971 0)
(29.1595 -0.0189304 0)
(29.3974 -0.0411645 0)
(29.825 -0.0871656 0)
(30.2086 -0.123355 0)
(36.8433 0.0837707 0)
(33.3272 0.0276944 0)
(32.2083 0.012045 0)
(31.65 0.00829079 0)
(31.4064 0.00387449 0)
(31.3328 -0.00830353 0)
(31.4855 -0.0291888 0)
(31.7121 -0.0629568 0)
(32.0872 -0.138276 0)
(32.4636 -0.197999 0)
(38.6778 0.100399 0)
(35.9576 0.041962 0)
(34.6914 0.0215789 0)
(34.0053 0.0152494 0)
(33.6829 0.00811175 0)
(33.5697 -0.00989673 0)
(33.6745 -0.0409253 0)
(33.8879 -0.0909908 0)
(34.2099 -0.193661 0)
(34.5545 -0.28006 0)
(39.8059 0.107846 0)
(38.338 0.0580616 0)
(37.1324 0.0356378 0)
(36.359 0.0264623 0)
(35.9592 0.0154845 0)
(35.8061 -0.00963918 0)
(35.8615 -0.0537245 0)
(36.0512 -0.123685 0)
(36.3269 -0.252782 0)
(36.6234 -0.374974 0)
(39.6057 0.099467 0)
(39.9817 0.0691145 0)
(39.3724 0.0530832 0)
(38.6676 0.0435936 0)
(38.2345 0.028185 0)
(38.0551 -0.00567115 0)
(38.0729 -0.0663368 0)
(38.2317 -0.160148 0)
(38.4633 -0.317102 0)
(38.7039 -0.476545 0)
(39.3385 0.0914554 0)
(40.1573 0.0654386 0)
(40.5503 0.0596728 0)
(40.4452 0.0571542 0)
(40.2507 0.0426696 0)
(40.1533 0.00274219 0)
(40.1772 -0.0742712 0)
(40.309 -0.193427 0)
(40.49 -0.374955 0)
(40.6631 -0.564911 0)
(39.3404 0.083211 0)
(40.0721 0.0574588 0)
(40.5837 0.0530104 0)
(40.7855 0.0532888 0)
(40.8864 0.039436 0)
(40.9931 -0.0058205 0)
(41.1288 -0.0983299 0)
(41.2977 -0.241457 0)
(41.4644 -0.439458 0)
(41.5913 -0.643602 0)
(39.3437 0.0706201 0)
(40.0721 0.0476105 0)
(40.5764 0.0437901 0)
(40.7818 0.0431638 0)
(40.902 0.0264225 0)
(41.0249 -0.0270492 0)
(41.1612 -0.135944 0)
(41.3032 -0.301412 0)
(41.4241 -0.509664 0)
(41.498 -0.714202 0)
(39.3431 0.0415663 0)
(40.0693 0.0262501 0)
(40.5746 0.023641 0)
(40.7778 0.0216554 0)
(40.8905 0.00158201 0)
(40.9912 -0.06147 0)
(41.0811 -0.184323 0)
(41.1445 -0.356798 0)
(41.1712 -0.546927 0)
(41.163 -0.716819 0)
(39.3427 0.00290117 0)
(40.0679 -0.00155124 0)
(40.5734 -0.00289118 0)
(40.7742 -0.00639311 0)
(40.8753 -0.0284086 0)
(40.9436 -0.0949469 0)
(40.9754 -0.215997 0)
(40.9667 -0.367655 0)
(40.9304 -0.513007 0)
(40.8825 -0.629292 0)
(39.3429 -0.0269247 0)
(40.0686 -0.0232141 0)
(40.5738 -0.0236931 0)
(40.7727 -0.0278578 0)
(40.8654 -0.047842 0)
(40.9124 -0.106718 0)
(40.9103 -0.208137 0)
(40.8655 -0.327065 0)
(40.8006 -0.434877 0)
(40.7349 -0.518359 0)
(39.3432 -0.049995 0)
(40.0698 -0.0399334 0)
(40.5747 -0.040023 0)
(40.7729 -0.0443712 0)
(40.8606 -0.0605727 0)
(40.8946 -0.108346 0)
(40.8725 -0.189628 0)
(40.807 -0.283181 0)
(40.7264 -0.366185 0)
(40.6519 -0.42879 0)
(39.342 -0.0684077 0)
(40.0742 -0.0525492 0)
(40.5814 -0.0520873 0)
(40.7713 -0.0568091 0)
(40.841 -0.0694954 0)
(40.849 -0.106846 0)
(40.7958 -0.170858 0)
(40.7006 -0.244015 0)
(40.597 -0.307832 0)
(40.5072 -0.355172 0)
(39.3669 -0.0833252 0)
(40.1084 -0.0649607 0)
(40.4241 -0.0612393 0)
(40.3511 -0.0625965 0)
(40.1905 -0.0692112 0)
(40.0212 -0.0948002 0)
(39.8338 -0.141242 0)
(39.6385 -0.194705 0)
(39.4635 -0.241075 0)
(39.3249 -0.275308 0)
(39.5609 -0.0927162 0)
(39.3614 -0.0674118 0)
(38.7887 -0.0536116 0)
(38.2284 -0.0478766 0)
(37.835 -0.0482281 0)
(37.5492 -0.0637583 0)
(37.2929 -0.0950433 0)
(37.0512 -0.131517 0)
(36.8442 -0.162933 0)
(36.6843 -0.185845 0)
(38.6962 -0.0693013 0)
(36.855 -0.0459305 0)
(35.8936 -0.0331568 0)
(35.282 -0.0280302 0)
(34.8934 -0.0279996 0)
(34.6141 -0.0381789 0)
(34.3573 -0.0585613 0)
(34.1105 -0.0820822 0)
(33.897 -0.10214 0)
(33.7318 -0.116685 0)
(36.4152 -0.0365777 0)
(33.4659 -0.0228755 0)
(32.4237 -0.0166018 0)
(31.8373 -0.014048 0)
(31.4792 -0.0140638 0)
(31.2239 -0.0196199 0)
(30.9835 -0.0305957 0)
(30.7458 -0.043176 0)
(30.5376 -0.0537861 0)
(30.3755 -0.0613985 0)
(32.9976 -0.153486 0)
(29.6684 -0.0265896 0)
(28.6683 -0.0055283 0)
(28.117 -0.00400698 0)
(27.7841 -0.00417448 0)
(27.5415 -0.00624274 0)
(27.3006 -0.0103355 0)
(27.056 -0.0146649 0)
(26.8397 -0.0180892 0)
(26.6708 -0.0204378 0)
(41.1381 -0.849983 0)
(41.1001 -0.977098 0)
(41.0366 -1.12921 0)
(40.9344 -1.30585 0)
(40.7756 -1.49883 0)
(40.5423 -1.68561 0)
(40.2261 -1.83057 0)
(39.8385 -1.89493 0)
(39.4133 -1.8525 0)
(38.999 -1.70442 0)
(38.6392 -1.47865 0)
(38.3586 -1.21418 0)
(38.1585 -0.94875 0)
(38.029 -0.707213 0)
(37.9498 -0.507632 0)
(37.9091 -0.349198 0)
(37.8863 -0.237801 0)
(37.8855 -0.154119 0)
(37.8826 -0.110615 0)
(37.9057 -0.0779132 0)
(40.8361 -0.713964 0)
(40.7852 -0.790624 0)
(40.7153 -0.87884 0)
(40.6191 -0.977602 0)
(40.4869 -1.08309 0)
(40.3093 -1.1864 0)
(40.0797 -1.27267 0)
(39.8 -1.32265 0)
(39.4836 -1.31861 0)
(39.1553 -1.25133 0)
(38.8441 -1.1266 0)
(38.573 -0.961062 0)
(38.354 -0.779131 0)
(38.1883 -0.600051 0)
(38.0698 -0.443545 0)
(37.9904 -0.312597 0)
(37.9398 -0.218184 0)
(37.9124 -0.145241 0)
(37.8988 -0.107474 0)
(37.8998 -0.0802199 0)
(40.679 -0.578043 0)
(40.6228 -0.63126 0)
(40.551 -0.691617 0)
(40.4585 -0.758357 0)
(40.3388 -0.829134 0)
(40.1861 -0.898779 0)
(39.9959 -0.958716 0)
(39.7678 -0.996966 0)
(39.5078 -1.00131 0)
(39.2297 -0.962735 0)
(38.9527 -0.881665 0)
(38.6955 -0.766144 0)
(38.4728 -0.633188 0)
(38.2908 -0.496607 0)
(38.1518 -0.374439 0)
(38.0499 -0.268824 0)
(37.9826 -0.193051 0)
(37.9383 -0.132043 0)
(37.918 -0.102929 0)
(37.9051 -0.0800354 0)
(40.5924 -0.47258 0)
(40.535 -0.510989 0)
(40.4639 -0.554021 0)
(40.3747 -0.60108 0)
(40.2627 -0.650532 0)
(40.1231 -0.698945 0)
(39.9525 -0.740921 0)
(39.7492 -0.768646 0)
(39.5165 -0.773913 0)
(39.2626 -0.749421 0)
(39.0021 -0.694063 0)
(38.7494 -0.61122 0)
(38.5216 -0.51303 0)
(38.324 -0.408551 0)
(38.1681 -0.31394 0)
(38.0425 -0.229253 0)
(37.9606 -0.169598 0)
(37.8887 -0.118493 0)
(37.8631 -0.0969476 0)
(37.8087 -0.0771019 0)
(40.4378 -0.387992 0)
(40.372 -0.416582 0)
(40.2916 -0.448411 0)
(40.1925 -0.483058 0)
(40.0702 -0.519372 0)
(39.9199 -0.554979 0)
(39.7382 -0.586154 0)
(39.522 -0.607422 0)
(39.2732 -0.612754 0)
(38.9957 -0.596332 0)
(38.7031 -0.55638 0)
(38.4049 -0.494471 0)
(38.1234 -0.41917 0)
(37.8571 -0.33743 0)
(37.6349 -0.2621 0)
(37.4212 -0.193752 0)
(37.2748 -0.14482 0)
(37.0838 -0.102262 0)
(37.0151 -0.0837954 0)
(36.7632 -0.0650355 0)
(39.2227 -0.298939 0)
(39.1285 -0.31942 0)
(39.0161 -0.342086 0)
(38.8805 -0.366617 0)
(38.7169 -0.392136 0)
(38.5202 -0.416936 0)
(38.2861 -0.438295 0)
(38.0107 -0.452338 0)
(37.695 -0.454575 0)
(37.3421 -0.440836 0)
(36.9652 -0.409366 0)
(36.5751 -0.36153 0)
(36.1962 -0.303041 0)
(35.8312 -0.240216 0)
(35.5124 -0.181321 0)
(35.2068 -0.129505 0)
(34.978 -0.0903017 0)
(34.7088 -0.0599335 0)
(34.584 -0.0428061 0)
(34.2607 -0.0312814 0)
(36.5678 -0.201542 0)
(36.4613 -0.215155 0)
(36.335 -0.230295 0)
(36.1839 -0.246694 0)
(36.0032 -0.263704 0)
(35.7876 -0.280139 0)
(35.5328 -0.294111 0)
(35.2353 -0.302988 0)
(34.8959 -0.303659 0)
(34.5186 -0.293273 0)
(34.1169 -0.270541 0)
(33.7041 -0.236578 0)
(33.3055 -0.195145 0)
(32.9291 -0.151198 0)
(32.6048 -0.109841 0)
(32.3097 -0.0745894 0)
(32.0929 -0.0470763 0)
(31.8651 -0.0284784 0)
(31.7588 -0.0151957 0)
(31.5256 -0.0114406 0)
(33.6114 -0.126654 0)
(33.5014 -0.135312 0)
(33.3709 -0.144934 0)
(33.2151 -0.155323 0)
(33.0288 -0.166016 0)
(32.8068 -0.176272 0)
(32.5447 -0.184849 0)
(32.239 -0.190088 0)
(31.8909 -0.19001 0)
(31.505 -0.182811 0)
(31.0952 -0.167576 0)
(30.6774 -0.145142 0)
(30.2779 -0.117846 0)
(29.9097 -0.089185 0)
(29.6011 -0.0621513 0)
(29.3391 -0.0397576 0)
(29.1578 -0.0219594 0)
(28.9964 -0.0113137 0)
(28.9285 -0.00229407 0)
(28.8111 -0.00233802 0)
(30.257 -0.0665613 0)
(30.1486 -0.0710361 0)
(30.0201 -0.076064 0)
(29.8664 -0.081455 0)
(29.6824 -0.0870165 0)
(29.4629 -0.0922835 0)
(29.2035 -0.0965636 0)
(28.9012 -0.0989409 0)
(28.5567 -0.0982835 0)
(28.1758 -0.0937824 0)
(27.7732 -0.0849037 0)
(27.367 -0.072242 0)
(26.985 -0.0571123 0)
(26.6444 -0.0415945 0)
(26.3715 -0.0272834 0)
(26.1595 -0.0158976 0)
(26.0285 -0.00702469 0)
(25.9376 -0.00248581 0)
(25.9138 0.00198179 0)
(25.8945 0.0006603 0)
(26.5476 -0.0219964 0)
(26.4352 -0.0233994 0)
(26.3022 -0.0250074 0)
(26.1435 -0.0267731 0)
(25.9545 -0.0283736 0)
(25.7302 -0.0299139 0)
(25.4676 -0.0310431 0)
(25.165 -0.0315067 0)
(24.8262 -0.0309523 0)
(24.4594 -0.0288134 0)
(24.0829 -0.0252827 0)
(23.7171 -0.0205858 0)
(23.3898 -0.0152937 0)
(23.1159 -0.0102396 0)
(22.9154 -0.00565943 0)
(22.7772 -0.00251037 0)
(22.7109 0.000120217 0)
(22.6816 0.000823694 0)
(22.6934 0.00206584 0)
(22.7245 0.000912936 0)
(23.7888 -0.600525 0)
(22.8598 -0.476703 0)
(23.0104 -0.85788 0)
(23.806 -1.53135 0)
(24.7682 -2.31239 0)
(25.7937 -3.06992 0)
(26.6549 -3.52348 0)
(27.3258 -3.54271 0)
(27.8757 -3.16773 0)
(28.4039 -2.59777 0)
(28.9142 -2.00101 0)
(29.3738 -1.48125 0)
(29.7581 -1.06848 0)
(30.052 -0.758763 0)
(30.2762 -0.540519 0)
(30.4303 -0.380492 0)
(30.5462 -0.282483 0)
(30.6375 -0.195134 0)
(30.6909 -0.170904 0)
(30.8116 -0.109124 0)
(27.9927 -0.390034 0)
(27.8764 -0.4038 0)
(27.7711 -0.877821 0)
(27.8517 -1.60337 0)
(28.1525 -2.39469 0)
(28.6146 -3.14048 0)
(28.9994 -3.57414 0)
(29.2738 -3.57699 0)
(29.514 -3.19404 0)
(29.8068 -2.62049 0)
(30.1386 -2.02044 0)
(30.4577 -1.49664 0)
(30.7275 -1.07967 0)
(30.9242 -0.766355 0)
(31.0658 -0.545389 0)
(31.1461 -0.38349 0)
(31.2019 -0.284478 0)
(31.2328 -0.196352 0)
(31.2476 -0.172261 0)
(31.3098 -0.110122 0)
(30.6547 -0.447456 0)
(30.9158 -0.441911 0)
(31.2973 -0.866216 0)
(31.525 -1.59641 0)
(31.5626 -2.40267 0)
(31.5585 -3.15162 0)
(31.4774 -3.58254 0)
(31.3615 -3.58443 0)
(31.3089 -3.2056 0)
(31.3877 -2.63592 0)
(31.5601 -2.03613 0)
(31.75 -1.50952 0)
(31.9082 -1.08863 0)
(32.0033 -0.77184 0)
(32.0537 -0.548221 0)
(32.0488 -0.384637 0)
(32.0329 -0.28481 0)
(31.9898 -0.196211 0)
(31.9565 -0.172524 0)
(31.9447 -0.110561 0)
(32.8289 -0.482174 0)
(33.102 -0.545189 0)
(33.5455 -0.940848 0)
(33.9177 -1.62846 0)
(34.039 -2.39941 0)
(33.9319 -3.12206 0)
(33.6342 -3.54796 0)
(33.2881 -3.56004 0)
(33.0508 -3.19896 0)
(32.9966 -2.64253 0)
(33.0766 -2.0474 0)
(33.1924 -1.51867 0)
(33.2776 -1.09335 0)
(33.2922 -0.772779 0)
(33.2588 -0.546655 0)
(33.1658 -0.381906 0)
(33.0714 -0.28172 0)
(32.9416 -0.193354 0)
(32.8519 -0.170435 0)
(32.7451 -0.109771 0)
(34.8649 -0.54188 0)
(35.1061 -0.67258 0)
(35.4642 -1.04078 0)
(35.7738 -1.67695 0)
(35.8585 -2.3988 0)
(35.6976 -3.07474 0)
(35.3313 -3.48474 0)
(34.9061 -3.5093 0)
(34.5914 -3.17563 0)
(34.4731 -2.64209 0)
(34.5187 -2.05805 0)
(34.6299 -1.52865 0)
(34.7215 -1.09655 0)
(34.7246 -0.768997 0)
(34.654 -0.538561 0)
(34.4967 -0.372631 0)
(34.3331 -0.272576 0)
(34.1128 -0.185677 0)
(33.9649 -0.163888 0)
(33.7383 -0.106493 0)
(36.8815 -0.614143 0)
(37.0846 -0.795119 0)
(37.3484 -1.13949 0)
(37.5679 -1.71401 0)
(37.5888 -2.3761 0)
(37.3736 -2.9981 0)
(36.9593 -3.3903 0)
(36.4757 -3.43209 0)
(36.0832 -3.13429 0)
(35.8755 -2.63264 0)
(35.8461 -2.06801 0)
(35.922 -1.54379 0)
(36.0342 -1.10699 0)
(36.098 -0.769452 0)
(36.0905 -0.528482 0)
(35.9527 -0.356524 0)
(35.7745 -0.254482 0)
(35.4895 -0.170217 0)
(35.3015 -0.149571 0)
(34.9408 -0.0986041 0)
(38.9063 -0.697613 0)
(39.0639 -0.909249 0)
(39.2392 -1.2342 0)
(39.3694 -1.73964 0)
(39.3307 -2.33056 0)
(39.0726 -2.88972 0)
(38.6196 -3.25695 0)
(38.0766 -3.31571 0)
(37.5887 -3.05995 0)
(37.2572 -2.59998 0)
(37.1006 -2.06487 0)
(37.0708 -1.5549 0)
(37.12 -1.12134 0)
(37.1801 -0.779841 0)
(37.2411 -0.529795 0)
(37.2175 -0.347915 0)
(37.1648 -0.235204 0)
(36.9314 -0.147799 0)
(36.7746 -0.122764 0)
(36.3179 -0.0824168 0)
(40.7983 -0.773756 0)
(40.8956 -0.99437 0)
(40.9794 -1.2978 0)
(41.0082 -1.73018 0)
(40.8898 -2.23871 0)
(40.5684 -2.72461 0)
(40.0543 -3.05713 0)
(39.4304 -3.1301 0)
(38.8268 -2.92265 0)
(38.3522 -2.51701 0)
(38.047 -2.02542 0)
(37.887 -1.54312 0)
(37.8344 -1.12334 0)
(37.8316 -0.787132 0)
(37.871 -0.535628 0)
(37.8835 -0.352113 0)
(37.9352 -0.231347 0)
(37.8704 -0.141387 0)
(37.9119 -0.102505 0)
(37.6301 -0.063631 0)
(41.6731 -0.837379 0)
(41.7201 -1.04373 0)
(41.7355 -1.31302 0)
(41.6873 -1.6679 0)
(41.5106 -2.08204 0)
(41.1547 -2.48238 0)
(40.6197 -2.7684 0)
(39.9686 -2.85037 0)
(39.3115 -2.69733 0)
(38.7556 -2.36138 0)
(38.353 -1.93228 0)
(38.1022 -1.49465 0)
(37.9668 -1.10194 0)
(37.9117 -0.779759 0)
(37.8981 -0.533801 0)
(37.9097 -0.352783 0)
(37.9246 -0.231044 0)
(37.9482 -0.14222 0)
(37.9655 -0.099541 0)
(37.9934 -0.059962 0)
(41.5315 -0.889137 0)
(41.536 -1.06709 0)
(41.5051 -1.29002 0)
(41.4145 -1.56418 0)
(41.2223 -1.87532 0)
(40.8915 -2.1774 0)
(40.4179 -2.40201 0)
(39.844 -2.48199 0)
(39.2512 -2.38382 0)
(38.7275 -2.13091 0)
(38.3255 -1.78474 0)
(38.0549 -1.4121 0)
(37.8928 -1.06331 0)
(37.8112 -0.765895 0)
(37.7756 -0.532488 0)
(37.7725 -0.35604 0)
(37.7737 -0.235765 0)
(37.7951 -0.147575 0)
(37.7991 -0.103416 0)
(37.8402 -0.0669815 0)
(0.701506 -0.0833182 0)
(0.825481 -0.0159329 0)
(-2.62259 0.0530365 0)
(-5.87858 0.0345325 0)
(-7.25832 0.0144842 0)
(-7.76328 0.00299952 0)
(-6.89551 -0.0112169 0)
(-4.89342 -0.0170124 0)
(-2.44429 -0.0153481 0)
(-0.0720432 -0.00952848 0)
(1.7675 -0.00441618 0)
(3.19022 -0.00436665 0)
(4.75218 -0.00699253 0)
(5.96776 -0.00580519 0)
(6.90282 -0.00447296 0)
(7.65461 -0.00327599 0)
(8.20444 -0.00244676 0)
(8.71339 -0.00169907 0)
(8.98873 -0.00147024 0)
(9.50428 -0.000972743 0)
(0.72556 -0.00742264 0)
(-1.37314 0.105274 0)
(-6.81743 0.197247 0)
(-10.4743 0.107335 0)
(-11.5521 0.0297812 0)
(-11.0946 -0.0191353 0)
(-9.20891 -0.0611081 0)
(-6.12687 -0.0794347 0)
(-2.56156 -0.0774604 0)
(1.01389 -0.0621364 0)
(4.09109 -0.0443905 0)
(6.62372 -0.0321196 0)
(8.50907 -0.0237148 0)
(9.983 -0.0165731 0)
(11.1122 -0.0116499 0)
(12.0094 -0.00806884 0)
(12.6649 -0.00588078 0)
(13.2828 -0.00400322 0)
(13.6146 -0.00345098 0)
(14.2346 -0.0022365 0)
(0.511241 0.0179381 0)
(-3.07632 0.278413 0)
(-8.58225 0.356175 0)
(-11.3457 0.169928 0)
(-11.9598 0.0316813 0)
(-11.1927 -0.0508789 0)
(-9.07529 -0.118154 0)
(-5.77165 -0.147395 0)
(-1.99434 -0.143256 0)
(1.81093 -0.117876 0)
(5.15167 -0.087728 0)
(7.9524 -0.0637246 0)
(10.0316 -0.0448649 0)
(11.6473 -0.0308701 0)
(12.8836 -0.021494 0)
(13.8642 -0.0147826 0)
(14.5822 -0.0107428 0)
(15.2564 -0.00727966 0)
(15.6191 -0.0062702 0)
(16.2923 -0.00401915 0)
(0.181002 0.0966452 0)
(-4.11052 0.481745 0)
(-9.23597 0.532141 0)
(-11.177 0.226185 0)
(-11.6276 0.0276358 0)
(-10.7264 -0.0949359 0)
(-8.5338 -0.192064 0)
(-5.16748 -0.233894 0)
(-1.33765 -0.225932 0)
(2.5234 -0.187523 0)
(5.93904 -0.141501 0)
(8.8297 -0.102677 0)
(11.0481 -0.0722542 0)
(12.7724 -0.0500281 0)
(14.0942 -0.0349387 0)
(15.145 -0.0240886 0)
(15.9164 -0.0175581 0)
(16.6385 -0.0119102 0)
(17.0271 -0.0102619 0)
(17.7457 -0.0065464 0)
(-0.210114 0.238949 0)
(-4.80686 0.750213 0)
(-9.23923 0.718125 0)
(-10.6098 0.277396 0)
(-10.992 0.0181845 0)
(-10.0044 -0.154423 0)
(-7.78374 -0.288448 0)
(-4.40587 -0.346324 0)
(-0.574388 -0.333776 0)
(3.28675 -0.279036 0)
(6.71729 -0.212667 0)
(9.63489 -0.15487 0)
(11.9307 -0.108928 0)
(13.7245 -0.0755363 0)
(15.1043 -0.0527677 0)
(16.2052 -0.0364108 0)
(17.016 -0.0265556 0)
(17.7746 -0.0180067 0)
(18.1838 -0.0155097 0)
(18.9379 -0.00985271 0)
(-0.606523 0.450913 0)
(-5.21501 1.06862 0)
(-8.80899 0.899346 0)
(-9.81552 0.324514 0)
(-10.1476 0.00297847 0)
(-9.0947 -0.229375 0)
(-6.86596 -0.406349 0)
(-3.50203 -0.483239 0)
(0.303805 -0.46501 0)
(4.1342 -0.390653 0)
(7.54676 -0.299899 0)
(10.4541 -0.219456 0)
(12.7789 -0.154685 0)
(14.6096 -0.107508 0)
(16.0247 -0.0752092 0)
(17.1583 -0.0519714 0)
(17.9968 -0.0379419 0)
(18.7814 -0.0257253 0)
(19.2071 -0.0221547 0)
(19.9878 -0.014032 0)
(-0.95202 0.736586 0)
(-5.32555 1.41606 0)
(-8.08404 1.07177 0)
(-8.85986 0.368542 0)
(-9.12672 -0.0194742 0)
(-8.01422 -0.322485 0)
(-5.78324 -0.549168 0)
(-2.44799 -0.648219 0)
(1.31272 -0.622718 0)
(5.08915 -0.52471 0)
(8.45863 -0.404807 0)
(11.3282 -0.297538 0)
(13.645 -0.210572 0)
(15.4834 -0.1468 0)
(16.9126 -0.102929 0)
(18.0625 -0.0712793 0)
(18.9172 -0.0521157 0)
(19.718 -0.0353575 0)
(20.1555 -0.0304587 0)
(20.9545 -0.0192469 0)
(-1.19877 1.09425 0)
(-5.13888 1.77458 0)
(-7.13907 1.23135 0)
(-7.75659 0.410302 0)
(-7.93274 -0.0519881 0)
(-6.75536 -0.437552 0)
(-4.51835 -0.721623 0)
(-1.22129 -0.846266 0)
(2.47657 -0.811397 0)
(6.17715 -0.684887 0)
(9.47945 -0.530083 0)
(12.2873 -0.390967 0)
(14.5663 -0.277917 0)
(16.3858 -0.194434 0)
(17.8085 -0.136706 0)
(18.958 -0.0949181 0)
(19.8173 -0.0695392 0)
(20.6236 -0.0472383 0)
(21.0675 -0.0407244 0)
(21.8757 -0.0256927 0)
(-1.3196 1.5093 0)
(-4.67566 2.12793 0)
(-5.987 1.3745 0)
(-6.47334 0.448329 0)
(-6.52885 -0.0995242 0)
(-5.27488 -0.579645 0)
(-3.02569 -0.928484 0)
(0.222057 -1.08149 0)
(3.83591 -1.03449 0)
(7.43491 -0.873967 0)
(10.6431 -0.677887 0)
(13.3648 -0.501336 0)
(15.5793 -0.35787 0)
(17.3545 -0.251304 0)
(18.7496 -0.177239 0)
(19.8811 -0.123432 0)
(20.7318 -0.0906469 0)
(21.5313 -0.061694 0)
(21.9754 -0.053253 0)
(22.7814 -0.0335597 0)
(-1.31204 1.97129 0)
(-3.95913 2.45041 0)
(-4.6072 1.49129 0)
(-4.94086 0.476718 0)
(-4.82868 -0.170841 0)
(-3.47519 -0.757479 0)
(-1.2053 -1.17751 0)
(1.97496 -1.35978 0)
(5.47336 -1.29626 0)
(8.93292 -1.09486 0)
(12.01 -0.850276 0)
(14.6133 -0.629999 0)
(16.7328 -0.451351 0)
(18.4357 -0.318092 0)
(19.7793 -0.225064 0)
(20.8719 -0.157229 0)
(21.6981 -0.115777 0)
(22.4751 -0.0789795 0)
(22.9114 -0.0682954 0)
(23.7 -0.0430124 0)
(-1.10391 2.42729 0)
(-2.9915 2.70294 0)
(-2.96001 1.56119 0)
(-3.05669 0.480622 0)
(-2.69931 -0.280887 0)
(-1.20218 -0.983571 0)
(1.10515 -1.47886 0)
(4.1921 -1.68828 0)
(7.52709 -1.6014 0)
(10.789 -1.35043 0)
(13.6788 -1.04896 0)
(16.1153 -0.777926 0)
(18.0978 -0.55886 0)
(19.6916 -0.395054 0)
(20.953 -0.280343 0)
(21.9796 -0.196428 0)
(22.7605 -0.145029 0)
(23.4945 -0.0991924 0)
(23.9118 -0.0859587 0)
(24.663 -0.0541304 0)
(-0.955582 2.86355 0)
(-1.76536 2.81746 0)
(-0.980928 1.54713 0)
(-0.668384 0.429313 0)
(0.055647 -0.454627 0)
(1.76415 -1.27547 0)
(4.1288 -1.84249 0)
(7.08471 -2.07002 0)
(10.1833 -1.94944 0)
(13.1612 -1.63868 0)
(15.781 -1.27193 0)
(17.9802 -0.943448 0)
(19.7668 -0.679067 0)
(21.2015 -0.48117 0)
(22.3395 -0.342278 0)
(23.2647 -0.240456 0)
(23.9726 -0.177974 0)
(24.6365 -0.122062 0)
(25.0195 -0.106033 0)
(25.706 -0.0668006 0)
(0.0108907 3.01368 0)
(-0.280207 2.69854 0)
(1.46954 1.37856 0)
(2.49092 0.263194 0)
(3.75837 -0.733358 0)
(5.75659 -1.65689 0)
(8.17947 -2.27745 0)
(10.9303 -2.50172 0)
(13.6751 -2.33134 0)
(16.241 -1.94931 0)
(18.4732 -1.51035 0)
(20.337 -1.11977 0)
(21.848 -0.80696 0)
(23.0583 -0.572779 0)
(24.0193 -0.408199 0)
(24.7977 -0.287382 0)
(25.3968 -0.21316 0)
(25.9563 -0.146612 0)
(26.2846 -0.127666 0)
(26.8706 -0.0805465 0)
(-0.931837 3.06418 0)
(1.82319 2.04417 0)
(4.91614 0.876352 0)
(7.0296 -0.146986 0)
(9.02372 -1.19045 0)
(11.3277 -2.15884 0)
(13.7074 -2.78581 0)
(16.0786 -2.96785 0)
(18.2683 -2.72506 0)
(20.2333 -2.26056 0)
(21.9182 -1.74618 0)
(23.319 -1.29305 0)
(24.4541 -0.932335 0)
(25.3596 -0.662395 0)
(26.079 -0.472574 0)
(26.6557 -0.333169 0)
(27.1025 -0.247491 0)
(27.5157 -0.170702 0)
(27.7632 -0.14891 0)
(28.2045 -0.094266 0)
(4.95191 1.67442 0)
(8.1876 0.684602 0)
(11.861 -0.310006 0)
(14.8191 -1.12302 0)
(17.2154 -1.97529 0)
(19.3898 -2.80513 0)
(21.2548 -3.32948 0)
(22.8208 -3.40912 0)
(24.1147 -3.07252 0)
(25.2297 -2.52522 0)
(26.1891 -1.94399 0)
(26.9967 -1.43771 0)
(27.6571 -1.03676 0)
(28.1786 -0.736671 0)
(28.5908 -0.52554 0)
(28.909 -0.370564 0)
(29.1565 -0.275389 0)
(29.3778 -0.190378 0)
(29.5131 -0.166234 0)
(29.7611 -0.105845 0)
)
;

boundaryField
{
    inlet
    {
        type            fixedValue;
        value           uniform (39.27 0 0);
    }
    outlet
    {
        type            zeroGradient;
    }
    frontAndBack
    {
        type            empty;
    }
    noslipwall
    {
        type            noSlip;
    }
}


// ************************************************************************* //
