/*--------------------------------*- C++ -*----------------------------------*\
  =========                 |
  \\      /  F ield         | OpenFOAM: The Open Source CFD Toolbox
   \\    /   O peration     | Website:  https://openfoam.org
    \\  /    A nd           | Version:  7
     \\/     M anipulation  |
\*---------------------------------------------------------------------------*/
FoamFile
{
    version     2.0;
    format      ascii;
    class       volVectorField;
    location    "486";
    object      U4;
}
// * * * * * * * * * * * * * * * * * * * * * * * * * * * * * * * * * * * * * //

dimensions      [0 1 -1 0 0 0 0];

internalField   nonuniform List<vector> 
900
(
(32.7895 0.0686332 0)
(28.6059 0.0057471 0)
(28.0413 0.00113725 0)
(27.7337 0.000825635 0)
(27.6227 0.000207488 0)
(27.6392 -0.00103375 0)
(27.8606 -0.00582082 0)
(28.2259 -0.00501139 0)
(28.5359 -0.0220857 0)
(29.4761 -0.0603518 0)
(37.6903 0.0376518 0)
(33.2504 0.00985345 0)
(32.4877 0.00344275 0)
(32.0978 0.00235501 0)
(31.9505 0.000713521 0)
(31.945 -0.00376363 0)
(32.18 -0.0133836 0)
(32.4997 -0.0200898 0)
(33.0041 -0.0804297 0)
(33.4916 -0.00518183 0)
(41.5672 0.0683687 0)
(37.0963 0.0195102 0)
(36.0455 0.00752958 0)
(35.5294 0.00515931 0)
(35.3192 0.00201866 0)
(35.2755 -0.00670666 0)
(35.4956 -0.0226423 0)
(35.7812 -0.0482606 0)
(36.2893 -0.104232 0)
(36.7459 -0.144111 0)
(44.4899 0.0968029 0)
(40.4007 0.0326096 0)
(39.0762 0.0144375 0)
(38.4153 0.00997896 0)
(38.1251 0.00467007 0)
(38.0376 -0.00943251 0)
(38.2179 -0.0348952 0)
(38.4879 -0.0742169 0)
(38.9346 -0.165011 0)
(39.3848 -0.233216 0)
(46.599 0.115901 0)
(43.4549 0.0492488 0)
(41.9694 0.0256761 0)
(41.1635 0.0182036 0)
(40.7833 0.00970591 0)
(40.6499 -0.01132 0)
(40.7749 -0.0488535 0)
(41.0301 -0.107645 0)
(41.4142 -0.231111 0)
(41.8277 -0.3315 0)
(47.8651 0.124132 0)
(46.1998 0.067855 0)
(44.8023 0.0420945 0)
(43.901 0.0313569 0)
(43.4344 0.0183753 0)
(43.2557 -0.0110729 0)
(43.3233 -0.0641704 0)
(43.5512 -0.146781 0)
(43.8815 -0.30185 0)
(44.2385 -0.445814 0)
(47.6177 0.114403 0)
(48.069 0.0803944 0)
(47.3826 0.0621926 0)
(46.5721 0.0512271 0)
(46.0718 0.0331499 0)
(45.8653 -0.00656865 0)
(45.8901 -0.0793914 0)
(46.0827 -0.190617 0)
(46.3618 -0.379042 0)
(46.6528 -0.568726 0)
(47.3162 0.105224 0)
(48.2593 0.0760699 0)
(48.7198 0.0695555 0)
(48.6069 0.0666505 0)
(48.3887 0.0496011 0)
(48.2821 0.00266894 0)
(48.3166 -0.089666 0)
(48.4792 -0.231474 0)
(48.6999 -0.44948 0)
(48.9113 -0.676979 0)
(47.3209 0.0957205 0)
(48.1653 0.0668912 0)
(48.7579 0.0617675 0)
(48.9939 0.0620299 0)
(49.1126 0.0455493 0)
(49.24 -0.00792591 0)
(49.4029 -0.118966 0)
(49.607 -0.290069 0)
(49.8095 -0.528283 0)
(49.965 -0.774057 0)
(47.3246 0.0811809 0)
(48.1656 0.0554871 0)
(48.7503 0.0510492 0)
(48.9902 0.0502421 0)
(49.1308 0.0303044 0)
(49.2761 -0.0331207 0)
(49.4386 -0.163879 0)
(49.6097 -0.36247 0)
(49.757 -0.613675 0)
(49.8482 -0.861113 0)
(47.3239 0.0476852 0)
(48.1622 0.0306456 0)
(48.7483 0.0275959 0)
(48.9854 0.0252022 0)
(49.1173 0.001232 0)
(49.2358 -0.0739718 0)
(49.3426 -0.221753 0)
(49.4185 -0.429609 0)
(49.4509 -0.659608 0)
(49.4412 -0.86576 0)
(47.3235 0.00312942 0)
(48.1607 -0.00171654 0)
(48.7469 -0.00329744 0)
(48.9811 -0.0074571 0)
(49.0991 -0.0338186 0)
(49.1786 -0.113458 0)
(49.2151 -0.259239 0)
(49.2034 -0.442389 0)
(49.1589 -0.618383 0)
(49.1004 -0.759461 0)
(47.3237 -0.0312329 0)
(48.1614 -0.0269352 0)
(48.7473 -0.0275205 0)
(48.9793 -0.0324549 0)
(49.0873 -0.0564216 0)
(49.141 -0.126949 0)
(49.1365 -0.249028 0)
(49.081 -0.392559 0)
(49.0016 -0.52295 0)
(48.9213 -0.624087 0)
(47.324 -0.0578267 0)
(48.1629 -0.0463721 0)
(48.7485 -0.0465228 0)
(48.9795 -0.0516722 0)
(49.0814 -0.0711262 0)
(49.1195 -0.128331 0)
(49.0907 -0.226017 0)
(49.0102 -0.338741 0)
(48.9116 -0.438967 0)
(48.8206 -0.514683 0)
(47.3227 -0.0790763 0)
(48.1677 -0.0610366 0)
(48.7558 -0.0605537 0)
(48.9775 -0.0661412 0)
(49.0588 -0.0813864 0)
(49.0666 -0.126057 0)
(49.0017 -0.202824 0)
(48.8863 -0.290774 0)
(48.7608 -0.367637 0)
(48.652 -0.424724 0)
(47.3503 -0.0963361 0)
(48.2064 -0.0754956 0)
(48.5771 -0.0712563 0)
(48.4976 -0.0729645 0)
(48.3144 -0.08108 0)
(48.1182 -0.11177 0)
(47.8982 -0.167462 0)
(47.6672 -0.2317 0)
(47.459 -0.287513 0)
(47.2938 -0.328757 0)
(47.575 -0.106871 0)
(47.3578 -0.0784635 0)
(46.7004 -0.0626557 0)
(46.0525 -0.0561112 0)
(45.5959 -0.0568266 0)
(45.2617 -0.0755136 0)
(44.9596 -0.113039 0)
(44.6732 -0.15684 0)
(44.4269 -0.194671 0)
(44.2363 -0.222312 0)
(46.5936 -0.0791474 0)
(44.4647 -0.0535097 0)
(43.3433 -0.038956 0)
(42.631 -0.0330367 0)
(42.1759 -0.0331664 0)
(41.8469 -0.0454053 0)
(41.543 -0.0698113 0)
(41.2494 -0.0980284 0)
(40.9952 -0.122103 0)
(40.798 -0.139582 0)
(43.9561 -0.0412978 0)
(40.5255 -0.0265658 0)
(39.3004 -0.0195682 0)
(38.6119 -0.0166197 0)
(38.1889 -0.0167475 0)
(37.8867 -0.0233786 0)
(37.6007 -0.0367 0)
(37.3181 -0.0519417 0)
(37.0699 -0.0648121 0)
(36.8762 -0.0740116 0)
(39.9876 -0.184356 0)
(36.0965 -0.0319414 0)
(34.9151 -0.00649624 0)
(34.2622 -0.00475025 0)
(33.8677 -0.00490276 0)
(33.5779 -0.00742816 0)
(33.2902 -0.0118391 0)
(32.9972 -0.0169162 0)
(32.7372 -0.0210974 0)
(32.5344 -0.0240764 0)
(49.4112 -1.02777 0)
(49.3653 -1.18275 0)
(49.2882 -1.36861 0)
(49.1637 -1.58484 0)
(48.9694 -1.82118 0)
(48.6833 -2.04952 0)
(48.2955 -2.2257 0)
(47.8203 -2.3016 0)
(47.3004 -2.24513 0)
(46.7962 -2.05908 0)
(46.3614 -1.77943 0)
(46.0251 -1.45503 0)
(45.7875 -1.13214 0)
(45.6349 -0.840442 0)
(45.5426 -0.600908 0)
(45.4957 -0.412005 0)
(45.4696 -0.279916 0)
(45.469 -0.181171 0)
(45.4657 -0.13003 0)
(45.4927 -0.0917413 0)
(49.044 -0.86232 0)
(48.9819 -0.955541 0)
(48.8968 -1.06291 0)
(48.7793 -1.18321 0)
(48.6178 -1.31169 0)
(48.4005 -1.43735 0)
(48.1196 -1.54178 0)
(47.7774 -1.60122 0)
(47.3909 -1.59394 0)
(46.9913 -1.50906 0)
(46.6141 -1.35446 0)
(46.2873 -1.1513 0)
(46.0247 -0.929757 0)
(45.8271 -0.713264 0)
(45.6865 -0.525199 0)
(45.5927 -0.368874 0)
(45.5331 -0.256763 0)
(45.5008 -0.170626 0)
(45.4849 -0.126179 0)
(45.4859 -0.094228 0)
(48.8531 -0.69647 0)
(48.7845 -0.761059 0)
(48.6969 -0.834357 0)
(48.5838 -0.915436 0)
(48.4376 -1.00141 0)
(48.251 -1.08589 0)
(48.0185 -1.1583 0)
(47.7398 -1.20389 0)
(47.4225 -1.20767 0)
(47.0839 -1.15884 0)
(46.7477 -1.05835 0)
(46.4368 -0.916647 0)
(46.1687 -0.754794 0)
(45.9505 -0.589768 0)
(45.7845 -0.443036 0)
(45.6634 -0.317049 0)
(45.5836 -0.227127 0)
(45.5313 -0.155164 0)
(45.5073 -0.12093 0)
(45.4919 -0.0940923 0)
(48.748 -0.567686 0)
(48.6779 -0.614195 0)
(48.5911 -0.666309 0)
(48.4821 -0.723298 0)
(48.3452 -0.783154 0)
(48.1747 -0.84165 0)
(47.9664 -0.892142 0)
(47.7182 -0.925052 0)
(47.4345 -0.93035 0)
(47.1254 -0.899267 0)
(46.8093 -0.830709 0)
(46.5036 -0.729268 0)
(46.2291 -0.609948 0)
(45.9921 -0.483968 0)
(45.8059 -0.370563 0)
(45.6567 -0.269769 0)
(45.5598 -0.199115 0)
(45.4755 -0.138956 0)
(45.4453 -0.113711 0)
(45.3824 -0.0904634 0)
(48.568 -0.464328 0)
(48.4882 -0.498845 0)
(48.3908 -0.537274 0)
(48.2706 -0.579104 0)
(48.1222 -0.622932 0)
(47.9401 -0.665842 0)
(47.7198 -0.703261 0)
(47.4578 -0.728507 0)
(47.1567 -0.734219 0)
(46.8216 -0.713413 0)
(46.4693 -0.664116 0)
(46.1116 -0.58855 0)
(45.7754 -0.497331 0)
(45.4593 -0.399053 0)
(45.1967 -0.309038 0)
(44.9462 -0.227893 0)
(44.7752 -0.170152 0)
(44.5536 -0.120111 0)
(44.4741 -0.0986272 0)
(44.183 -0.0766472 0)
(47.1716 -0.357242 0)
(47.059 -0.381947 0)
(46.9245 -0.409297 0)
(46.7623 -0.438891 0)
(46.5663 -0.469664 0)
(46.3305 -0.499522 0)
(46.0498 -0.525149 0)
(45.7197 -0.541829 0)
(45.3415 -0.544122 0)
(44.9195 -0.526968 0)
(44.4697 -0.488407 0)
(44.0055 -0.430305 0)
(43.5563 -0.359729 0)
(43.1254 -0.284413 0)
(42.7505 -0.214286 0)
(42.3926 -0.152864 0)
(42.1254 -0.106749 0)
(41.8115 -0.0710006 0)
(41.6662 -0.0511389 0)
(41.2888 -0.0374853 0)
(44.0973 -0.241266 0)
(43.97 -0.257703 0)
(43.819 -0.275964 0)
(43.6384 -0.295763 0)
(43.4222 -0.3163 0)
(43.164 -0.336106 0)
(42.8589 -0.352887 0)
(42.5027 -0.363421 0)
(42.0965 -0.363945 0)
(41.6454 -0.351089 0)
(41.1661 -0.323332 0)
(40.6748 -0.282146 0)
(40.2018 -0.232232 0)
(39.7566 -0.179585 0)
(39.3744 -0.130339 0)
(39.0274 -0.0885356 0)
(38.7729 -0.0561626 0)
(38.5052 -0.0341826 0)
(38.3803 -0.0187846 0)
(38.1049 -0.0141569 0)
(40.6541 -0.151596 0)
(40.5226 -0.162024 0)
(40.3667 -0.173603 0)
(40.1802 -0.186096 0)
(39.9573 -0.199006 0)
(39.6914 -0.211355 0)
(39.3775 -0.221715 0)
(39.0117 -0.228028 0)
(38.5951 -0.227798 0)
(38.1337 -0.218925 0)
(37.6446 -0.200416 0)
(37.1469 -0.173313 0)
(36.6722 -0.140486 0)
(36.2357 -0.106217 0)
(35.8707 -0.074082 0)
(35.561 -0.0474665 0)
(35.3464 -0.0265061 0)
(35.1544 -0.0138797 0)
(35.0731 -0.00339689 0)
(34.9303 -0.00327093 0)
(36.7346 -0.0802259 0)
(36.605 -0.085676 0)
(36.4512 -0.0917336 0)
(36.2673 -0.0983166 0)
(36.047 -0.10496 0)
(35.7839 -0.111226 0)
(35.4731 -0.116328 0)
(35.1105 -0.119149 0)
(34.698 -0.118433 0)
(34.2418 -0.112795 0)
(33.76 -0.101924 0)
(33.2745 -0.0865093 0)
(32.8186 -0.0683049 0)
(32.4126 -0.0497985 0)
(32.0876 -0.0327502 0)
(31.8347 -0.0192403 0)
(31.6777 -0.00868368 0)
(31.5668 -0.00317492 0)
(31.5362 0.00198096 0)
(31.5068 0.00052 0)
(32.3861 -0.0260898 0)
(32.2508 -0.0277577 0)
(32.0906 -0.0296553 0)
(31.8997 -0.0316282 0)
(31.6717 -0.0339316 0)
(31.4018 -0.0358513 0)
(31.0853 -0.0372985 0)
(30.7208 -0.0377943 0)
(30.3124 -0.0368075 0)
(29.871 -0.0346033 0)
(29.4184 -0.0303901 0)
(28.9796 -0.0248167 0)
(28.5877 -0.0183002 0)
(28.2604 -0.0120673 0)
(28.0201 -0.00667434 0)
(27.8542 -0.00284804 0)
(27.7736 2.12372e-06 0)
(27.7357 0.000693457 0)
(27.7481 0.00227641 0)
(27.7792 0.00093676 0)
(29.2044 -0.716706 0)
(27.9912 -0.55491 0)
(28.15 -1.04179 0)
(29.0891 -1.87551 0)
(30.2515 -2.84746 0)
(31.4971 -3.79496 0)
(32.5195 -4.3575 0)
(33.2857 -4.36712 0)
(33.8982 -3.88021 0)
(34.4944 -3.15835 0)
(35.0788 -2.41352 0)
(35.6071 -1.7736 0)
(36.0467 -1.27192 0)
(36.3784 -0.898878 0)
(36.6277 -0.638143 0)
(36.7948 -0.44853 0)
(36.9181 -0.333122 0)
(37.0127 -0.230211 0)
(37.067 -0.202194 0)
(37.1954 -0.129462 0)
(34.1668 -0.449015 0)
(34.0234 -0.45664 0)
(33.906 -1.06122 0)
(33.9859 -1.9615 0)
(34.3374 -2.94659 0)
(34.8839 -3.87897 0)
(35.3141 -4.41573 0)
(35.5911 -4.40484 0)
(35.827 -3.90887 0)
(36.1413 -3.18363 0)
(36.5148 -2.43551 0)
(36.8785 -1.79107 0)
(37.1848 -1.2845 0)
(37.4034 -0.907278 0)
(37.5567 -0.643397 0)
(37.6378 -0.451651 0)
(37.6909 -0.335123 0)
(37.7147 -0.231386 0)
(37.7237 -0.203555 0)
(37.7831 -0.130497 0)
(37.2795 -0.521427 0)
(37.6046 -0.506942 0)
(38.0862 -1.04752 0)
(38.3607 -1.95219 0)
(38.3992 -2.95399 0)
(38.3746 -3.88862 0)
(38.2332 -4.42076 0)
(38.0362 -4.40881 0)
(37.9223 -3.91921 0)
(37.9852 -3.20003 0)
(38.173 -2.45307 0)
(38.3882 -1.80562 0)
(38.5665 -1.29448 0)
(38.6683 -0.913153 0)
(38.7164 -0.646184 0)
(38.6987 -0.452521 0)
(38.6687 -0.335091 0)
(38.6059 -0.230898 0)
(38.5589 -0.203564 0)
(38.5314 -0.130834 0)
(39.8233 -0.566121 0)
(40.1635 -0.635922 0)
(40.7151 -1.13801 0)
(41.1616 -1.99109 0)
(41.296 -2.94791 0)
(41.1419 -3.84775 0)
(40.7382 -4.37236 0)
(40.2676 -4.37342 0)
(39.9382 -3.90726 0)
(39.8478 -3.20581 0)
(39.9309 -2.46551 0)
(40.064 -1.81594 0)
(40.1617 -1.29957 0)
(40.1734 -0.913722 0)
(40.1264 -0.643777 0)
(40.0079 -0.448779 0)
(39.8877 -0.33097 0)
(39.7244 -0.227153 0)
(39.6119 -0.200734 0)
(39.4733 -0.129678 0)
(42.2021 -0.64096 0)
(42.5025 -0.794333 0)
(42.9477 -1.25843 0)
(43.3186 -2.0481 0)
(43.4059 -2.94297 0)
(43.1839 -3.78328 0)
(42.6976 -4.28788 0)
(42.1352 -4.30531 0)
(41.7163 -3.87485 0)
(41.5507 -3.20298 0)
(41.5945 -2.47733 0)
(41.7244 -1.82754 0)
(41.8336 -1.3032 0)
(41.8371 -0.90899 0)
(41.7517 -0.633827 0)
(41.5619 -0.437391 0)
(41.3637 -0.319723 0)
(41.097 -0.217714 0)
(40.9178 -0.192605 0)
(40.6399 -0.125548 0)
(44.5514 -0.731008 0)
(44.8036 -0.947103 0)
(45.132 -1.37764 0)
(45.3951 -2.09061 0)
(45.4068 -2.91028 0)
(45.1214 -3.68181 0)
(44.5818 -4.16402 0)
(43.9537 -4.20399 0)
(43.4438 -3.81992 0)
(43.171 -3.18879 0)
(43.1243 -2.48808 0)
(43.2112 -1.84526 0)
(43.3443 -1.31559 0)
(43.4213 -0.909612 0)
(43.4141 -0.62191 0)
(43.2525 -0.418247 0)
(43.0421 -0.298121 0)
(42.7037 -0.199214 0)
(42.4804 -0.175362 0)
(42.0487 -0.115985 0)
(46.8994 -0.834249 0)
(47.0948 -1.08929 0)
(47.3132 -1.49221 0)
(47.4692 -2.11865 0)
(47.411 -2.84912 0)
(47.0773 -3.54087 0)
(46.4967 -3.99165 0)
(45.8029 -4.054 0)
(45.1822 -3.72408 0)
(44.7631 -3.14604 0)
(44.5658 -2.48278 0)
(44.5277 -1.85798 0)
(44.5869 -1.33253 0)
(44.6599 -0.922059 0)
(44.7339 -0.623669 0)
(44.7085 -0.408283 0)
(44.6487 -0.275523 0)
(44.3759 -0.172891 0)
(44.1933 -0.143697 0)
(43.6553 -0.0967704 0)
(49.0776 -0.92901 0)
(49.1993 -1.19629 0)
(49.3053 -1.56999 0)
(49.3399 -2.10452 0)
(49.1888 -2.73195 0)
(48.7839 -3.33118 0)
(48.1375 -3.73839 0)
(47.3548 -3.81976 0)
(46.6021 -3.55192 0)
(46.0164 -3.04273 0)
(45.6454 -2.43415 0)
(45.4553 -1.84366 0)
(45.3962 -1.33503 0)
(45.3967 -0.930936 0)
(45.4462 -0.6308 0)
(45.4636 -0.413414 0)
(45.5257 -0.271177 0)
(45.4516 -0.165547 0)
(45.5013 -0.120125 0)
(45.1749 -0.0748268 0)
(50.0664 -1.00866 0)
(50.126 -1.25944 0)
(50.1476 -1.58967 0)
(50.0896 -2.02698 0)
(49.8711 -2.53693 0)
(49.4302 -3.02929 0)
(48.7671 -3.37888 0)
(47.9616 -3.47312 0)
(47.1532 -3.27516 0)
(46.4764 -2.85381 0)
(45.993 -2.32293 0)
(45.6975 -1.78711 0)
(45.5424 -1.31093 0)
(45.4825 -0.923292 0)
(45.4709 -0.629412 0)
(45.4878 -0.414646 0)
(45.5072 -0.271083 0)
(45.5358 -0.1667 0)
(45.5566 -0.11682 0)
(45.5897 -0.0706678 0)
(49.8904 -1.07357 0)
(49.8976 -1.29036 0)
(49.8618 -1.56319 0)
(49.7523 -1.89995 0)
(49.5168 -2.28224 0)
(49.1098 -2.65286 0)
(48.5267 -2.92684 0)
(47.8209 -3.02044 0)
(47.0953 -2.89281 0)
(46.4594 -2.57562 0)
(45.9768 -2.14724 0)
(45.6566 -1.69065 0)
(45.4681 -1.26709 0)
(45.3757 -0.908612 0)
(45.3372 -0.629121 0)
(45.3361 -0.419272 0)
(45.3391 -0.277067 0)
(45.3649 -0.173218 0)
(45.3699 -0.121459 0)
(45.4181 -0.0788986 0)
(0.934917 -0.091842 0)
(0.995637 -0.0101261 0)
(-4.38536 0.0937062 0)
(-8.52733 0.0474899 0)
(-10.0564 0.0154825 0)
(-10.4769 -0.00242891 0)
(-9.14519 -0.0222759 0)
(-6.42332 -0.0310813 0)
(-3.11023 -0.0292517 0)
(0.110627 -0.0202315 0)
(2.64352 -0.0118741 0)
(4.61092 -0.0098971 0)
(6.63735 -0.0114065 0)
(8.21952 -0.00900378 0)
(9.42215 -0.00654305 0)
(10.343 -0.00456565 0)
(11.0187 -0.00343366 0)
(11.665 -0.00238443 0)
(12.0075 -0.00204794 0)
(12.6475 -0.00133492 0)
(0.875174 -0.00597771 0)
(-2.18674 0.164404 0)
(-9.10744 0.263784 0)
(-13.2754 0.125894 0)
(-14.4231 0.0302726 0)
(-13.8098 -0.0288043 0)
(-11.4225 -0.0810848 0)
(-7.52183 -0.103703 0)
(-3.04059 -0.100832 0)
(1.43118 -0.0810388 0)
(5.25952 -0.0579704 0)
(8.3619 -0.0415239 0)
(10.6963 -0.0304368 0)
(12.5204 -0.021183 0)
(13.9116 -0.0146834 0)
(15.025 -0.0100839 0)
(15.8504 -0.00742717 0)
(16.6231 -0.00505805 0)
(17.0365 -0.00433314 0)
(17.8151 -0.00280382 0)
(0.578048 0.0346399 0)
(-4.20516 0.379335 0)
(-10.9751 0.449611 0)
(-14.0854 0.194709 0)
(-14.7925 0.0312896 0)
(-13.8257 -0.068143 0)
(-11.1784 -0.151543 0)
(-7.03946 -0.187182 0)
(-2.33447 -0.180941 0)
(2.38229 -0.148391 0)
(6.48561 -0.109523 0)
(9.87965 -0.078788 0)
(12.4128 -0.0555092 0)
(14.3796 -0.038158 0)
(15.8828 -0.0263968 0)
(17.0919 -0.0181592 0)
(17.9854 -0.0133304 0)
(18.8233 -0.00904362 0)
(19.2715 -0.00777208 0)
(20.1146 -0.00499054 0)
(0.150329 0.144104 0)
(-5.40971 0.633137 0)
(-11.6394 0.662502 0)
(-13.7914 0.259381 0)
(-14.3428 0.0257279 0)
(-13.2112 -0.123895 0)
(-10.4794 -0.245 0)
(-6.27433 -0.296572 0)
(-1.51574 -0.285049 0)
(3.25763 -0.235401 0)
(7.43979 -0.175949 0)
(10.9424 -0.126767 0)
(13.6278 -0.0892125 0)
(15.7117 -0.0617095 0)
(17.3079 -0.0430046 0)
(18.5897 -0.0297688 0)
(19.5363 -0.0218535 0)
(20.425 -0.0148247 0)
(20.903 -0.0127875 0)
(21.795 -0.00817093 0)
(-0.34382 0.332873 0)
(-6.22002 0.971456 0)
(-11.5443 0.884507 0)
(-13.0466 0.317217 0)
(-13.5336 0.0138527 0)
(-12.2972 -0.198197 0)
(-9.53802 -0.365287 0)
(-5.32469 -0.436855 0)
(-0.570205 -0.419001 0)
(4.19581 -0.348267 0)
(8.39149 -0.263021 0)
(11.9268 -0.190229 0)
(14.697 -0.133645 0)
(16.8558 -0.0925354 0)
(18.514 -0.0646023 0)
(19.845 -0.0447882 0)
(20.8302 -0.0328816 0)
(21.7552 -0.0223063 0)
(22.2558 -0.0192662 0)
(23.1839 -0.0122638 0)
(-0.834785 0.607558 0)
(-6.67548 1.36774 0)
(-10.932 1.09782 0)
(-12.0445 0.37048 0)
(-12.4757 -0.00471071 0)
(-11.1623 -0.291327 0)
(-8.39883 -0.511863 0)
(-4.20722 -0.607008 0)
(0.511061 -0.581279 0)
(5.23369 -0.485326 0)
(9.40429 -0.369228 0)
(12.9253 -0.268201 0)
(15.7261 -0.18871 0)
(17.9238 -0.130924 0)
(19.6182 -0.0915593 0)
(20.9796 -0.0635573 0)
(21.9903 -0.0466788 0)
(22.9406 -0.0316912 0)
(23.4572 -0.0273922 0)
(24.4114 -0.0173855 0)
(-1.25298 0.97268 0)
(-6.75914 1.79502 0)
(-9.97193 1.29932 0)
(-10.8576 0.421325 0)
(-11.2066 -0.0319781 0)
(-9.82425 -0.406789 0)
(-7.06115 -0.689366 0)
(-2.9094 -0.811966 0)
(1.74879 -0.776126 0)
(6.4002 -0.649793 0)
(10.5146 -0.496801 0)
(13.9883 -0.362473 0)
(16.7757 -0.255838 0)
(18.9783 -0.177966 0)
(20.6849 -0.12471 0)
(22.0592 -0.0867012 0)
(23.0829 -0.0637406 0)
(24.0473 -0.0433255 0)
(24.5741 -0.0374746 0)
(25.5445 -0.0237374 0)
(-1.54114 1.42523 0)
(-6.47376 2.23354 0)
(-8.75502 1.48528 0)
(-9.49683 0.471028 0)
(-9.72888 -0.0715622 0)
(-8.27112 -0.549223 0)
(-5.50251 -0.903486 0)
(-1.40215 -1.05784 0)
(3.17425 -1.00913 0)
(7.72752 -0.846174 0)
(11.7557 -0.649085 0)
(15.1529 -0.475239 0)
(17.8911 -0.336649 0)
(20.0667 -0.234888 0)
(21.7618 -0.16499 0)
(23.1306 -0.114911 0)
(24.1545 -0.0845985 0)
(25.1202 -0.057592 0)
(25.6515 -0.0498639 0)
(26.6269 -0.0315353 0)
(-1.66906 1.94631 0)
(-5.84831 2.6631 0)
(-7.29511 1.65198 0)
(-7.91873 0.517987 0)
(-7.99649 -0.129639 0)
(-6.44824 -0.724841 0)
(-3.66575 -1.16009 0)
(0.369486 -1.34957 0)
(4.83791 -1.28441 0)
(9.26102 -1.0778 0)
(13.1695 -0.828659 0)
(16.4589 -0.608269 0)
(19.1158 -0.432431 0)
(21.2344 -0.302722 0)
(22.8932 -0.213218 0)
(24.2362 -0.148806 0)
(25.2455 -0.109746 0)
(26.1978 -0.074848 0)
(26.7266 -0.0648941 0)
(27.6935 -0.0410007 0)
(-1.63742 2.52284 0)
(-4.91293 3.05168 0)
(-5.56517 1.78838 0)
(-6.03659 0.55519 0)
(-5.9034 -0.217035 0)
(-4.23471 -0.944406 0)
(-1.42681 -1.46884 0)
(2.52061 -1.69446 0)
(6.84083 -1.60698 0)
(11.086 -1.348 0)
(14.8287 -1.03779 0)
(17.9699 -0.763161 0)
(20.5085 -0.544236 0)
(22.5365 -0.382219 0)
(24.1302 -0.269965 0)
(25.4231 -0.188847 0)
(26.3997 -0.13955 0)
(27.3206 -0.0953834 0)
(27.8372 -0.0828344 0)
(28.7781 -0.0523088 0)
(-1.35071 3.08473 0)
(-3.67209 3.35217 0)
(-3.51603 1.87082 0)
(-3.72392 0.564727 0)
(-3.28701 -0.352116 0)
(-1.44138 -1.22349 0)
(1.41359 -1.84228 0)
(5.24026 -2.10105 0)
(9.3513 -1.98244 0)
(13.3448 -1.65995 0)
(16.8514 -1.27831 0)
(19.7848 -0.940888 0)
(22.1539 -0.672541 0)
(24.047 -0.473617 0)
(25.5384 -0.335363 0)
(26.7496 -0.235134 0)
(27.6688 -0.174093 0)
(28.5347 -0.119276 0)
(29.026 -0.103786 0)
(29.917 -0.06553 0)
(-1.14718 3.6127 0)
(-2.11841 3.48153 0)
(-1.07123 1.85624 0)
(-0.795045 0.509071 0)
(0.0914608 -0.565424 0)
(2.19979 -1.58392 0)
(5.12748 -2.29269 0)
(8.785 -2.5727 0)
(12.5939 -2.40964 0)
(16.2272 -2.01086 0)
(19.3952 -1.54749 0)
(22.0336 -1.13918 0)
(24.1614 -0.81558 0)
(25.8593 -0.575535 0)
(27.1995 -0.408399 0)
(28.2865 -0.286924 0)
(29.1159 -0.212824 0)
(29.8951 -0.146167 0)
(30.3433 -0.127455 0)
(31.1522 -0.0805104 0)
(0.0668878 3.77973 0)
(-0.255731 3.32742 0)
(1.92909 1.66125 0)
(3.07316 0.314713 0)
(4.62402 -0.907427 0)
(7.09374 -2.05515 0)
(10.0944 -2.83096 0)
(13.4882 -3.10474 0)
(16.8458 -2.87667 0)
(19.9593 -2.3874 0)
(22.6437 -1.8341 0)
(24.8673 -1.3495 0)
(26.6575 -0.967121 0)
(28.082 -0.683474 0)
(29.2076 -0.485764 0)
(30.1165 -0.341847 0)
(30.814 -0.253956 0)
(31.4658 -0.174857 0)
(31.8472 -0.152789 0)
(32.5325 -0.0966539 0)
(-1.03433 3.79854 0)
(2.30151 2.52421 0)
(6.10879 1.06413 0)
(8.61676 -0.178885 0)
(11.0603 -1.46847 0)
(13.9112 -2.67551 0)
(16.8527 -3.45876 0)
(19.7598 -3.67659 0)
(22.4133 -3.35525 0)
(24.7739 -2.76208 0)
(26.7808 -2.1156 0)
(28.4372 -1.55479 0)
(29.7707 -1.11467 0)
(30.8272 -0.78835 0)
(31.6618 -0.560762 0)
(32.3286 -0.39501 0)
(32.8429 -0.293746 0)
(33.3187 -0.202763 0)
(33.6029 -0.177439 0)
(34.1131 -0.112623 0)
(6.0468 2.07156 0)
(9.98532 0.867129 0)
(14.5221 -0.377142 0)
(18.1219 -1.37685 0)
(21.0633 -2.43529 0)
(23.7463 -3.47257 0)
(26.0286 -4.12555 0)
(27.9126 -4.21204 0)
(29.442 -3.772 0)
(30.75 -3.07621 0)
(31.8705 -2.34865 0)
(32.8104 -1.72405 0)
(33.5741 -1.23603 0)
(34.1722 -0.874147 0)
(34.6413 -0.621606 0)
(35.0008 -0.437755 0)
(35.278 -0.325532 0)
(35.5255 -0.225171 0)
(35.6762 -0.197198 0)
(35.9553 -0.125897 0)
)
;

boundaryField
{
    inlet
    {
        type            fixedValue;
        value           uniform (47.24 0 0);
    }
    outlet
    {
        type            zeroGradient;
    }
    frontAndBack
    {
        type            empty;
    }
    noslipwall
    {
        type            noSlip;
    }
}


// ************************************************************************* //
